 Entering Gaussian System, Link 0=g16
 Input=./com/1.com
 Output=./log/1.log
 Initial command:
 /home/shohei/gaussian/g16/l1.exe "/home/shohei/gaussian/scratch/Gau-12227.inp" -scrdir="/home/shohei/gaussian/scratch/"
 Entering Link 1 = /home/shohei/gaussian/g16/l1.exe PID=     12229.
  
 Copyright (c) 1988-2017, Gaussian, Inc.  All Rights Reserved.
  
 This is part of the Gaussian(R) 16 program.  It is based on
 the Gaussian(R) 09 system (copyright 2009, Gaussian, Inc.),
 the Gaussian(R) 03 system (copyright 2003, Gaussian, Inc.),
 the Gaussian(R) 98 system (copyright 1998, Gaussian, Inc.),
 the Gaussian(R) 94 system (copyright 1995, Gaussian, Inc.),
 the Gaussian 92(TM) system (copyright 1992, Gaussian, Inc.),
 the Gaussian 90(TM) system (copyright 1990, Gaussian, Inc.),
 the Gaussian 88(TM) system (copyright 1988, Gaussian, Inc.),
 the Gaussian 86(TM) system (copyright 1986, Carnegie Mellon
 University), and the Gaussian 82(TM) system (copyright 1983,
 Carnegie Mellon University). Gaussian is a federally registered
 trademark of Gaussian, Inc.
  
 This software contains proprietary and confidential information,
 including trade secrets, belonging to Gaussian, Inc.
  
 This software is provided under written license and may be
 used, copied, transmitted, or stored only in accord with that
 written license.
  
 The following legend is applicable only to US Government
 contracts under FAR:
  
                    RESTRICTED RIGHTS LEGEND
  
 Use, reproduction and disclosure by the US Government is
 subject to restrictions as set forth in subparagraphs (a)
 and (c) of the Commercial Computer Software - Restricted
 Rights clause in FAR 52.227-19.
  
 Gaussian, Inc.
 340 Quinnipiac St., Bldg. 40, Wallingford CT 06492
  
  
 ---------------------------------------------------------------
 Warning -- This program may not be used in any manner that
 competes with the business of Gaussian, Inc. or will provide
 assistance to any competitor of Gaussian, Inc.  The licensee
 of this program is prohibited from giving any competitor of
 Gaussian, Inc. access to this program.  By using this program,
 the user acknowledges that Gaussian, Inc. is engaged in the
 business of creating and licensing software in the field of
 computational chemistry and represents and warrants to the
 licensee that it is not a competitor of Gaussian, Inc. and that
 it will not use this program in any manner prohibited above.
 ---------------------------------------------------------------
  

 Cite this work as:
 Gaussian 16, Revision B.01,
 M. J. Frisch, G. W. Trucks, H. B. Schlegel, G. E. Scuseria, 
 M. A. Robb, J. R. Cheeseman, G. Scalmani, V. Barone, 
 G. A. Petersson, H. Nakatsuji, X. Li, M. Caricato, A. V. Marenich, 
 J. Bloino, B. G. Janesko, R. Gomperts, B. Mennucci, H. P. Hratchian, 
 J. V. Ortiz, A. F. Izmaylov, J. L. Sonnenberg, D. Williams-Young, 
 F. Ding, F. Lipparini, F. Egidi, J. Goings, B. Peng, A. Petrone, 
 T. Henderson, D. Ranasinghe, V. G. Zakrzewski, J. Gao, N. Rega, 
 G. Zheng, W. Liang, M. Hada, M. Ehara, K. Toyota, R. Fukuda, 
 J. Hasegawa, M. Ishida, T. Nakajima, Y. Honda, O. Kitao, H. Nakai, 
 T. Vreven, K. Throssell, J. A. Montgomery, Jr., J. E. Peralta, 
 F. Ogliaro, M. J. Bearpark, J. J. Heyd, E. N. Brothers, K. N. Kudin, 
 V. N. Staroverov, T. A. Keith, R. Kobayashi, J. Normand, 
 K. Raghavachari, A. P. Rendell, J. C. Burant, S. S. Iyengar, 
 J. Tomasi, M. Cossi, J. M. Millam, M. Klene, C. Adamo, R. Cammi, 
 J. W. Ochterski, R. L. Martin, K. Morokuma, O. Farkas, 
 J. B. Foresman, and D. J. Fox, Gaussian, Inc., Wallingford CT, 2016.
 
 ******************************************
 Gaussian 16:  EM64L-G16RevB.01 20-Dec-2017
                27-Oct-2023 
 ******************************************
 %chk=./chk/1.chk
 ---------------------------
 # B3LYP/6-31G(d,p) OPT FREQ
 ---------------------------
 1/18=20,19=15,26=3,38=1/1,3;
 2/9=110,12=2,17=6,18=5,40=1/2;
 3/5=1,6=6,7=101,11=2,25=1,30=1,71=1,74=-5/1,2,3;
 4//1;
 5/5=2,38=5/2;
 6/7=2,8=2,9=2,10=2,28=1/1;
 7//1,2,3,16;
 1/18=20,19=15,26=3/3(2);
 2/9=110/2;
 99//99;
 2/9=110/2;
 3/5=1,6=6,7=101,11=2,25=1,30=1,71=1,74=-5/1,2,3;
 4/5=5,16=3,69=1/1;
 5/5=2,38=5/2;
 7//1,2,3,16;
 1/18=20,19=15,26=3/3(-5);
 2/9=110/2;
 6/7=2,8=2,9=2,10=2,19=2,28=1/1;
 99/9=1/99;
 -----
 1poly
 -----
 Symbolic Z-matrix:
 Charge =  0 Multiplicity = 1
 C                     25.02261  -11.43634   1.9355 
 C                     25.67796  -12.08276   2.89685 
 H                     25.56897  -10.9403   1.13985 
 H                     25.13154  -12.57878   3.69246 
 H                     26.76256  -12.11763   2.89078 
 H                     23.93808  -11.40174   1.94161 
 

 GradGradGradGradGradGradGradGradGradGradGradGradGradGradGradGradGradGrad
 Berny optimization.
 Initialization pass.
                           ----------------------------
                           !    Initial Parameters    !
                           ! (Angstroms and Degrees)  !
 --------------------------                            --------------------------
 ! Name  Definition              Value          Derivative Info.                !
 --------------------------------------------------------------------------------
 ! R1    R(1,2)                  1.331          estimate D2E/DX2                !
 ! R2    R(1,3)                  1.0852         estimate D2E/DX2                !
 ! R3    R(1,6)                  1.0851         estimate D2E/DX2                !
 ! R4    R(2,4)                  1.0852         estimate D2E/DX2                !
 ! R5    R(2,5)                  1.0852         estimate D2E/DX2                !
 ! A1    A(2,1,3)              120.2437         estimate D2E/DX2                !
 ! A2    A(2,1,6)              120.2343         estimate D2E/DX2                !
 ! A3    A(3,1,6)              119.522          estimate D2E/DX2                !
 ! A4    A(1,2,4)              120.2398         estimate D2E/DX2                !
 ! A5    A(1,2,5)              120.2443         estimate D2E/DX2                !
 ! A6    A(4,2,5)              119.5159         estimate D2E/DX2                !
 ! D1    D(3,1,2,4)           -179.9998         estimate D2E/DX2                !
 ! D2    D(3,1,2,5)              0.0            estimate D2E/DX2                !
 ! D3    D(6,1,2,4)             -0.0122         estimate D2E/DX2                !
 ! D4    D(6,1,2,5)            179.9875         estimate D2E/DX2                !
 --------------------------------------------------------------------------------
 Trust Radius=3.00D-01 FncErr=1.00D-07 GrdErr=1.00D-06 EigMax=2.50D+02 EigMin=1.00D-04
 Number of steps in this run=     25 maximum allowed number of steps=    100.
 GradGradGradGradGradGradGradGradGradGradGradGradGradGradGradGradGradGrad

                          Input orientation:                          
 ---------------------------------------------------------------------
 Center     Atomic      Atomic             Coordinates (Angstroms)
 Number     Number       Type             X           Y           Z
 ---------------------------------------------------------------------
      1          6           0       25.022615  -11.436343    1.935500
      2          6           0       25.677959  -12.082756    2.896847
      3          1           0       25.568972  -10.940300    1.139847
      4          1           0       25.131541  -12.578777    3.692464
      5          1           0       26.762561  -12.117635    2.890783
      6          1           0       23.938076  -11.401741    1.941611
 ---------------------------------------------------------------------
                    Distance matrix (angstroms):
                    1          2          3          4          5
     1  C    0.000000
     2  C    1.330983   0.000000
     3  H    1.085186   2.098603   0.000000
     4  H    2.098557   1.085180   3.064605   0.000000
     5  H    2.098604   1.085179   2.424160   1.874985   0.000000
     6  H    1.085108   2.098440   1.874987   2.423893   3.064498
                    6
     6  H    0.000000
 Stoichiometry    C2H4
 Framework group  C1[X(C2H4)]
 Deg. of freedom    12
 Full point group                 C1      NOp   1
 Largest Abelian subgroup         C1      NOp   1
 Largest concise Abelian subgroup C1      NOp   1
                         Standard orientation:                         
 ---------------------------------------------------------------------
 Center     Atomic      Atomic             Coordinates (Angstroms)
 Number     Number       Type             X           Y           Z
 ---------------------------------------------------------------------
      1          6           0       -0.665500    0.000008   -0.000027
      2          6           0        0.665483   -0.000016    0.000001
      3          1           0       -1.212102   -0.937465    0.000013
      4          1           0        1.212018    0.937489   -0.000035
      5          1           0        1.212058   -0.937497    0.000066
      6          1           0       -1.211875    0.937522    0.000113
 ---------------------------------------------------------------------
 Rotational constants (GHZ):         142.6382343          30.5347046          25.1506753
 Standard basis: 6-31G(d,p) (6D, 7F)
 There are    50 symmetry adapted cartesian basis functions of A   symmetry.
 There are    50 symmetry adapted basis functions of A   symmetry.
    50 basis functions,    84 primitive gaussians,    50 cartesian basis functions
     8 alpha electrons        8 beta electrons
       nuclear repulsion energy        33.4148992244 Hartrees.
 NAtoms=    6 NActive=    6 NUniq=    6 SFac= 1.00D+00 NAtFMM=   60 NAOKFM=F Big=F
 Integral buffers will be    131072 words long.
 Raffenetti 2 integral format.
 Two-electron integral symmetry is turned on.
 One-electron integrals computed using PRISM.
 NBasis=    50 RedAO= T EigKep=  6.85D-03  NBF=    50
 NBsUse=    50 1.00D-06 EigRej= -1.00D+00 NBFU=    50
 ExpMin= 1.61D-01 ExpMax= 3.05D+03 ExpMxC= 4.57D+02 IAcc=3 IRadAn=         5 AccDes= 0.00D+00
 Harris functional with IExCor=  402 and IRadAn=       5 diagonalized for initial guess.
 HarFok:  IExCor=  402 AccDes= 0.00D+00 IRadAn=         5 IDoV= 1 UseB2=F ITyADJ=14
 ICtDFT=  3500011 ScaDFX=  1.000000  1.000000  1.000000  1.000000
 FoFCou: FMM=F IPFlag=           0 FMFlag=      100000 FMFlg1=           0
         NFxFlg=           0 DoJE=T BraDBF=F KetDBF=T FulRan=T
         wScrn=  0.000000 ICntrl=       500 IOpCl=  0 I1Cent=   200000004 NGrid=           0
         NMat0=    1 NMatS0=      1 NMatT0=    0 NMatD0=    1 NMtDS0=    0 NMtDT0=    0
 Petite list used in FoFCou.
 Keep R1 ints in memory in canonical form, NReq=1686715.
 Requested convergence on RMS density matrix=1.00D-08 within 128 cycles.
 Requested convergence on MAX density matrix=1.00D-06.
 Requested convergence on             energy=1.00D-06.
 No special actions if energy rises.
 Integral accuracy reduced to 1.0D-05 until final iterations.
 Initial convergence to 1.0D-05 achieved.  Increase integral accuracy.
 SCF Done:  E(RB3LYP) =  -78.5932931908     A.U. after    9 cycles
            NFock=  9  Conv=0.82D-08     -V/T= 2.0103

 **********************************************************************

            Population analysis using the SCF Density.

 **********************************************************************

 Orbital symmetries:
       Occupied  (A) (A) (A) (A) (A) (A) (A) (A)
       Virtual   (A) (A) (A) (A) (A) (A) (A) (A) (A) (A) (A) (A)
                 (A) (A) (A) (A) (A) (A) (A) (A) (A) (A) (A) (A)
                 (A) (A) (A) (A) (A) (A) (A) (A) (A) (A) (A) (A)
                 (A) (A) (A) (A) (A) (A)
 The electronic state is 1-A.
 Alpha  occ. eigenvalues --  -10.18314 -10.18225  -0.75606  -0.57331  -0.46930
 Alpha  occ. eigenvalues --   -0.40906  -0.35514  -0.26705
 Alpha virt. eigenvalues --    0.01798   0.11837   0.14282   0.16089   0.24445
 Alpha virt. eigenvalues --    0.32607   0.47175   0.54859   0.57443   0.63811
 Alpha virt. eigenvalues --    0.64831   0.70267   0.83173   0.84598   0.90975
 Alpha virt. eigenvalues --    0.91834   1.10362   1.22706   1.38040   1.39720
 Alpha virt. eigenvalues --    1.52428   1.84343   1.87523   1.97284   1.99531
 Alpha virt. eigenvalues --    2.04658   2.14175   2.23601   2.35309   2.46261
 Alpha virt. eigenvalues --    2.51326   2.59613   2.69708   2.70423   2.73866
 Alpha virt. eigenvalues --    2.97400   3.19196   3.33518   3.50978   3.73601
 Alpha virt. eigenvalues --    4.17571   4.50381
          Condensed to atoms (all electrons):
               1          2          3          4          5          6
     1  C    4.821085   0.676038   0.389117  -0.036821  -0.036823   0.389126
     2  C    0.676038   4.821108  -0.036821   0.389115   0.389116  -0.036827
     3  H    0.389117  -0.036821   0.594181   0.005656  -0.010532  -0.042464
     4  H   -0.036821   0.389115   0.005656   0.594195  -0.042467  -0.010538
     5  H   -0.036823   0.389116  -0.010532  -0.042467   0.594189   0.005657
     6  H    0.389126  -0.036827  -0.042464  -0.010538   0.005657   0.594180
 Mulliken charges:
               1
     1  C   -0.201722
     2  C   -0.201728
     3  H    0.100863
     4  H    0.100860
     5  H    0.100861
     6  H    0.100866
 Sum of Mulliken charges =  -0.00000
 Mulliken charges with hydrogens summed into heavy atoms:
               1
     1  C    0.000007
     2  C   -0.000007
 Electronic spatial extent (au):  <R**2>=             81.6653
 Charge=             -0.0000 electrons
 Dipole moment (field-independent basis, Debye):
    X=              0.0000    Y=              0.0000    Z=              0.0001  Tot=              0.0001
 Quadrupole moment (field-independent basis, Debye-Ang):
   XX=            -12.2485   YY=            -11.9736   ZZ=            -14.9844
   XY=              0.0001   XZ=             -0.0001   YZ=              0.0000
 Traceless Quadrupole moment (field-independent basis, Debye-Ang):
   XX=              0.8203   YY=              1.0952   ZZ=             -1.9155
   XY=              0.0001   XZ=             -0.0001   YZ=              0.0000
 Octapole moment (field-independent basis, Debye-Ang**2):
  XXX=              0.0001  YYY=              0.0003  ZZZ=              0.0002  XYY=             -0.0001
  XXY=             -0.0004  XXZ=              0.0003  XZZ=             -0.0001  YZZ=              0.0001
  YYZ=              0.0002  XYZ=             -0.0002
 Hexadecapole moment (field-independent basis, Debye-Ang**3):
 XXXX=            -66.6899 YYYY=            -26.4207 ZZZZ=            -15.4791 XXXY=              0.0004
 XXXZ=             -0.0003 YYYX=             -0.0001 YYYZ=              0.0000 ZZZX=             -0.0001
 ZZZY=              0.0000 XXYY=            -13.2197 XXZZ=            -14.4247 YYZZ=             -7.6255
 XXYZ=             -0.0000 YYXZ=             -0.0002 ZZXY=             -0.0001
 N-N= 3.341489922436D+01 E-N=-2.482543273020D+02  KE= 7.779207092897D+01
 Calling FoFJK, ICntrl=      2127 FMM=F ISym2X=0 I1Cent= 0 IOpClX= 0 NMat=1 NMatS=1 NMatT=0.
 ***** Axes restored to original set *****
 -------------------------------------------------------------------
 Center     Atomic                   Forces (Hartrees/Bohr)
 Number     Number              X              Y              Z
 -------------------------------------------------------------------
      1        6           0.002843757   -0.002776860    0.004103140
      2        6          -0.002791108    0.002760492   -0.004102284
      3        1          -0.003645173    0.001582798   -0.002240089
      4        1           0.003641516   -0.001587713    0.002243399
      5        1           0.000479152   -0.002473614    0.003799982
      6        1          -0.000528144    0.002494896   -0.003804148
 -------------------------------------------------------------------
 Cartesian Forces:  Max     0.004103140 RMS     0.002869969

 GradGradGradGradGradGradGradGradGradGradGradGradGradGradGradGradGradGrad
 Berny optimization.
 FormGI is forming the generalized inverse of G from B-inverse, IUseBI=4.
 Internal  Forces:  Max     0.006201841 RMS     0.002870925
 Search for a local minimum.
 Step number   1 out of a maximum of   25
 All quantities printed in internal units (Hartrees-Bohrs-Radians)
 Mixed Optimization -- RFO/linear search
 Second derivative matrix not updated -- first step.
 The second derivative matrix:
                          R1        R2        R3        R4        R5
           R1           0.59274
           R2           0.00000   0.35375
           R3           0.00000   0.00000   0.35384
           R4           0.00000   0.00000   0.00000   0.35376
           R5           0.00000   0.00000   0.00000   0.00000   0.35376
           A1           0.00000   0.00000   0.00000   0.00000   0.00000
           A2           0.00000   0.00000   0.00000   0.00000   0.00000
           A3           0.00000   0.00000   0.00000   0.00000   0.00000
           A4           0.00000   0.00000   0.00000   0.00000   0.00000
           A5           0.00000   0.00000   0.00000   0.00000   0.00000
           A6           0.00000   0.00000   0.00000   0.00000   0.00000
           D1           0.00000   0.00000   0.00000   0.00000   0.00000
           D2           0.00000   0.00000   0.00000   0.00000   0.00000
           D3           0.00000   0.00000   0.00000   0.00000   0.00000
           D4           0.00000   0.00000   0.00000   0.00000   0.00000
                          A1        A2        A3        A4        A5
           A1           0.16000
           A2           0.00000   0.16000
           A3           0.00000   0.00000   0.16000
           A4           0.00000   0.00000   0.00000   0.16000
           A5           0.00000   0.00000   0.00000   0.00000   0.16000
           A6           0.00000   0.00000   0.00000   0.00000   0.00000
           D1           0.00000   0.00000   0.00000   0.00000   0.00000
           D2           0.00000   0.00000   0.00000   0.00000   0.00000
           D3           0.00000   0.00000   0.00000   0.00000   0.00000
           D4           0.00000   0.00000   0.00000   0.00000   0.00000
                          A6        D1        D2        D3        D4
           A6           0.16000
           D1           0.00000   0.03002
           D2           0.00000   0.00000   0.03002
           D3           0.00000   0.00000   0.00000   0.03002
           D4           0.00000   0.00000   0.00000   0.00000   0.03002
 ITU=  0
     Eigenvalues ---    0.03002   0.03002   0.03002   0.16000   0.16000
     Eigenvalues ---    0.16000   0.16000   0.35375   0.35376   0.35376
     Eigenvalues ---    0.35384   0.59274
 RFO step:  Lambda=-7.32314836D-04 EMin= 3.00172436D-02
 Linear search not attempted -- first point.
 Iteration  1 RMS(Cart)=  0.02148492 RMS(Int)=  0.00019718
 Iteration  2 RMS(Cart)=  0.00019741 RMS(Int)=  0.00000001
 Iteration  3 RMS(Cart)=  0.00000000 RMS(Int)=  0.00000001
 Variable       Old X    -DE/DX   Delta X   Delta X   Delta X     New X
                                 (Linear)    (Quad)   (Total)
    R1        2.51519   0.00269   0.00000   0.00453   0.00453   2.51972
    R2        2.05070   0.00053   0.00000   0.00150   0.00150   2.05220
    R3        2.05056   0.00059   0.00000   0.00165   0.00165   2.05221
    R4        2.05069   0.00054   0.00000   0.00151   0.00151   2.05221
    R5        2.05069   0.00054   0.00000   0.00152   0.00152   2.05221
    A1        2.09865   0.00309   0.00000   0.01922   0.01922   2.11787
    A2        2.09848   0.00311   0.00000   0.01936   0.01936   2.11785
    A3        2.08605  -0.00620   0.00000  -0.03858  -0.03858   2.04747
    A4        2.09858   0.00310   0.00000   0.01928   0.01928   2.11786
    A5        2.09866   0.00309   0.00000   0.01924   0.01924   2.11790
    A6        2.08595  -0.00619   0.00000  -0.03852  -0.03852   2.04742
    D1       -3.14159  -0.00000   0.00000  -0.00007  -0.00007   3.14153
    D2       -0.00000  -0.00000   0.00000  -0.00001  -0.00001  -0.00001
    D3       -0.00021   0.00001   0.00000   0.00024   0.00024   0.00003
    D4        3.14137   0.00001   0.00000   0.00030   0.00030  -3.14151
         Item               Value     Threshold  Converged?
 Maximum Force            0.006202     0.000450     NO 
 RMS     Force            0.002871     0.000300     NO 
 Maximum Displacement     0.034851     0.001800     NO 
 RMS     Displacement     0.021487     0.001200     NO 
 Predicted change in Energy=-3.678012D-04
 GradGradGradGradGradGradGradGradGradGradGradGradGradGradGradGradGradGrad

                          Input orientation:                          
 ---------------------------------------------------------------------
 Center     Atomic      Atomic             Coordinates (Angstroms)
 Number     Number       Type             X           Y           Z
 ---------------------------------------------------------------------
      1          6           0       25.022020  -11.435842    1.934604
      2          6           0       25.678559  -12.083368    2.897707
      3          1           0       25.550642  -10.933299    1.130018
      4          1           0       25.149926  -12.585862    3.702321
      5          1           0       26.763497  -12.129529    2.909225
      6          1           0       23.937080  -11.389651    1.923176
 ---------------------------------------------------------------------
                    Distance matrix (angstroms):
                    1          2          3          4          5
     1  C    0.000000
     2  C    1.333380   0.000000
     3  H    1.085978   2.112758   0.000000
     4  H    2.112754   1.085981   3.083550   0.000000
     5  H    2.112778   1.085981   2.463242   1.854953   0.000000
     6  H    1.085983   2.112748   1.854976   2.463184   3.083561
                    6
     6  H    0.000000
 Stoichiometry    C2H4
 Framework group  C1[X(C2H4)]
 Deg. of freedom    12
 Full point group                 C1      NOp   1
 Largest Abelian subgroup         C1      NOp   1
 Largest concise Abelian subgroup C1      NOp   1
                         Standard orientation:                         
 ---------------------------------------------------------------------
 Center     Atomic      Atomic             Coordinates (Angstroms)
 Number     Number       Type             X           Y           Z
 ---------------------------------------------------------------------
      1          6           0       -0.666692   -0.000003    0.000011
      2          6           0        0.666687   -0.000002    0.000006
      3          1           0       -1.231607   -0.927484   -0.000024
      4          1           0        1.231594    0.927487   -0.000016
      5          1           0        1.231635   -0.927466   -0.000025
      6          1           0       -1.231590    0.927493   -0.000033
 ---------------------------------------------------------------------
 Rotational constants (GHZ):         145.7339218          30.1138028          24.9568346
 Standard basis: 6-31G(d,p) (6D, 7F)
 There are    50 symmetry adapted cartesian basis functions of A   symmetry.
 There are    50 symmetry adapted basis functions of A   symmetry.
    50 basis functions,    84 primitive gaussians,    50 cartesian basis functions
     8 alpha electrons        8 beta electrons
       nuclear repulsion energy        33.3366750540 Hartrees.
 NAtoms=    6 NActive=    6 NUniq=    6 SFac= 1.00D+00 NAtFMM=   60 NAOKFM=F Big=F
 Integral buffers will be    131072 words long.
 Raffenetti 2 integral format.
 Two-electron integral symmetry is turned on.
 One-electron integrals computed using PRISM.
 NBasis=    50 RedAO= T EigKep=  6.98D-03  NBF=    50
 NBsUse=    50 1.00D-06 EigRej= -1.00D+00 NBFU=    50
 Initial guess from the checkpoint file:  "./chk/1.chk"
 B after Tr=    -0.000000    0.000000    0.000000
         Rot=    1.000000    0.000000    0.000000   -0.000013 Ang=   0.00 deg.
 ExpMin= 1.61D-01 ExpMax= 3.05D+03 ExpMxC= 4.57D+02 IAcc=3 IRadAn=         5 AccDes= 0.00D+00
 Harris functional with IExCor=  402 and IRadAn=       5 diagonalized for initial guess.
 HarFok:  IExCor=  402 AccDes= 0.00D+00 IRadAn=         5 IDoV= 1 UseB2=F ITyADJ=14
 ICtDFT=  3500011 ScaDFX=  1.000000  1.000000  1.000000  1.000000
 FoFCou: FMM=F IPFlag=           0 FMFlag=      100000 FMFlg1=           0
         NFxFlg=           0 DoJE=T BraDBF=F KetDBF=T FulRan=T
         wScrn=  0.000000 ICntrl=       500 IOpCl=  0 I1Cent=   200000004 NGrid=           0
         NMat0=    1 NMatS0=      1 NMatT0=    0 NMatD0=    1 NMtDS0=    0 NMtDT0=    0
 Petite list used in FoFCou.
 Keep R1 ints in memory in canonical form, NReq=1686715.
 Requested convergence on RMS density matrix=1.00D-08 within 128 cycles.
 Requested convergence on MAX density matrix=1.00D-06.
 Requested convergence on             energy=1.00D-06.
 No special actions if energy rises.
 Integral accuracy reduced to 1.0D-05 until final iterations.
 Initial convergence to 1.0D-05 achieved.  Increase integral accuracy.
 SCF Done:  E(RB3LYP) =  -78.5937551967     A.U. after    8 cycles
            NFock=  8  Conv=0.81D-08     -V/T= 2.0105
 Calling FoFJK, ICntrl=      2127 FMM=F ISym2X=0 I1Cent= 0 IOpClX= 0 NMat=1 NMatS=1 NMatT=0.
 ***** Axes restored to original set *****
 -------------------------------------------------------------------
 Center     Atomic                   Forces (Hartrees/Bohr)
 Number     Number              X              Y              Z
 -------------------------------------------------------------------
      1        6           0.002598073   -0.002560037    0.003817096
      2        6          -0.002598356    0.002562556   -0.003807053
      3        1          -0.000982311    0.000492680   -0.000709694
      4        1           0.000981498   -0.000494110    0.000706311
      5        1           0.000232683   -0.000705076    0.001071807
      6        1          -0.000231587    0.000703987   -0.001078466
 -------------------------------------------------------------------
 Cartesian Forces:  Max     0.003817096 RMS     0.001863626

 GradGradGradGradGradGradGradGradGradGradGradGradGradGradGradGradGradGrad
 Berny optimization.
 Using GEDIIS/GDIIS optimizer.
 FormGI is forming the generalized inverse of G from B-inverse, IUseBI=4.
 Internal  Forces:  Max     0.002809146 RMS     0.001075743
 Search for a local minimum.
 Step number   2 out of a maximum of   25
 All quantities printed in internal units (Hartrees-Bohrs-Radians)
 Mixed Optimization -- RFO/linear search
 Update second derivatives using D2CorX and points    1    2
 DE= -4.62D-04 DEPred=-3.68D-04 R= 1.26D+00
 TightC=F SS=  1.41D+00  RLast= 6.70D-02 DXNew= 5.0454D-01 2.0101D-01
 Trust test= 1.26D+00 RLast= 6.70D-02 DXMaxT set to 3.00D-01
 The second derivative matrix:
                          R1        R2        R3        R4        R5
           R1           0.63870
           R2           0.00064   0.35348
           R3           0.00103  -0.00028   0.35355
           R4           0.00070  -0.00027  -0.00028   0.35349
           R5           0.00070  -0.00027  -0.00028  -0.00027   0.35349
           A1           0.01118  -0.00119  -0.00118  -0.00118  -0.00118
           A2           0.01130  -0.00120  -0.00119  -0.00119  -0.00119
           A3          -0.02248   0.00239   0.00237   0.00238   0.00237
           A4           0.01123  -0.00119  -0.00119  -0.00119  -0.00119
           A5           0.01124  -0.00119  -0.00118  -0.00118  -0.00118
           A6          -0.02247   0.00238   0.00237   0.00237   0.00237
           D1          -0.00004  -0.00000  -0.00000  -0.00000  -0.00000
           D2          -0.00001  -0.00000  -0.00000  -0.00000  -0.00000
           D3           0.00006  -0.00000  -0.00000  -0.00000  -0.00000
           D4           0.00010  -0.00000   0.00000  -0.00000  -0.00000
                          A1        A2        A3        A4        A5
           A1           0.15610
           A2          -0.00392   0.15607
           A3           0.00782   0.00784   0.14434
           A4          -0.00391  -0.00392   0.00783   0.15608
           A5          -0.00389  -0.00390   0.00779  -0.00390   0.15613
           A6           0.00780   0.00782  -0.01562   0.00781   0.00777
           D1          -0.00001  -0.00001   0.00003  -0.00001  -0.00001
           D2          -0.00000  -0.00000   0.00000  -0.00000  -0.00000
           D3           0.00000   0.00000  -0.00001   0.00000   0.00000
           D4           0.00001   0.00002  -0.00003   0.00002   0.00002
                          A6        D1        D2        D3        D4
           A6           0.14442
           D1           0.00003   0.03002
           D2           0.00000   0.00000   0.03002
           D3          -0.00001  -0.00000  -0.00000   0.03002
           D4          -0.00003  -0.00000  -0.00000   0.00000   0.03002
 ITU=  1  0
 Use linear search instead of GDIIS.
     Eigenvalues ---    0.03002   0.03002   0.03002   0.10998   0.16000
     Eigenvalues ---    0.16000   0.16000   0.35297   0.35375   0.35376
     Eigenvalues ---    0.35382   0.64157
 RFO step:  Lambda=-3.89079014D-05 EMin= 3.00172254D-02
 Quartic linear search produced a step of  0.35175.
 Iteration  1 RMS(Cart)=  0.00758231 RMS(Int)=  0.00003722
 Iteration  2 RMS(Cart)=  0.00003732 RMS(Int)=  0.00000000
 Iteration  3 RMS(Cart)=  0.00000000 RMS(Int)=  0.00000000
 Variable       Old X    -DE/DX   Delta X   Delta X   Delta X     New X
                                 (Linear)    (Quad)   (Total)
    R1        2.51972  -0.00281   0.00159  -0.00776  -0.00617   2.51355
    R2        2.05220   0.00028   0.00053   0.00060   0.00113   2.05333
    R3        2.05221   0.00027   0.00058   0.00055   0.00113   2.05334
    R4        2.05221   0.00027   0.00053   0.00059   0.00113   2.05333
    R5        2.05221   0.00027   0.00053   0.00059   0.00112   2.05333
    A1        2.11787   0.00087   0.00676   0.00159   0.00835   2.12622
    A2        2.11785   0.00088   0.00681   0.00157   0.00838   2.12622
    A3        2.04747  -0.00175  -0.01357  -0.00316  -0.01673   2.03074
    A4        2.11786   0.00088   0.00678   0.00158   0.00837   2.12623
    A5        2.11790   0.00087   0.00677   0.00155   0.00832   2.12622
    A6        2.04742  -0.00175  -0.01355  -0.00314  -0.01669   2.03073
    D1        3.14153   0.00000  -0.00002   0.00016   0.00014  -3.14152
    D2       -0.00001   0.00000  -0.00000   0.00002   0.00002   0.00001
    D3        0.00003  -0.00000   0.00009  -0.00012  -0.00003  -0.00001
    D4       -3.14151  -0.00000   0.00010  -0.00026  -0.00015   3.14152
         Item               Value     Threshold  Converged?
 Maximum Force            0.002809     0.000450     NO 
 RMS     Force            0.001076     0.000300     NO 
 Maximum Displacement     0.012952     0.001800     NO 
 RMS     Displacement     0.007588     0.001200     NO 
 Predicted change in Energy=-5.326831D-05
 GradGradGradGradGradGradGradGradGradGradGradGradGradGradGradGradGradGrad

                          Input orientation:                          
 ---------------------------------------------------------------------
 Center     Atomic      Atomic             Coordinates (Angstroms)
 Number     Number       Type             X           Y           Z
 ---------------------------------------------------------------------
      1          6           0       25.022824  -11.436597    1.935817
      2          6           0       25.677752  -12.082548    2.896558
      3          1           0       25.543796  -10.931251    1.127199
      4          1           0       25.156780  -12.587953    3.705140
      5          1           0       26.762956  -12.133697    2.915640
      6          1           0       23.937615  -11.385506    1.916698
 ---------------------------------------------------------------------
                    Distance matrix (angstroms):
                    1          2          3          4          5
     1  C    0.000000
     2  C    1.330116   0.000000
     3  H    1.086577   2.115197   0.000000
     4  H    2.115199   1.086577   3.088725   0.000000
     5  H    2.115198   1.086576   2.476034   1.846473   0.000000
     6  H    1.086579   2.115200   1.846476   2.476039   3.088726
                    6
     6  H    0.000000
 Stoichiometry    C2H4
 Framework group  C1[X(C2H4)]
 Deg. of freedom    12
 Full point group                 C1      NOp   1
 Largest Abelian subgroup         C1      NOp   1
 Largest concise Abelian subgroup C1      NOp   1
                         Standard orientation:                         
 ---------------------------------------------------------------------
 Center     Atomic      Atomic             Coordinates (Angstroms)
 Number     Number       Type             X           Y           Z
 ---------------------------------------------------------------------
      1          6           0       -0.665058   -0.000000   -0.000009
      2          6           0        0.665058    0.000000   -0.000008
      3          1           0       -1.238017   -0.923237    0.000027
      4          1           0        1.238019    0.923237    0.000025
      5          1           0        1.238018   -0.923236    0.000025
      6          1           0       -1.238019    0.923238    0.000027
 ---------------------------------------------------------------------
 Rotational constants (GHZ):         147.0772695          30.0928766          24.9815119
 Standard basis: 6-31G(d,p) (6D, 7F)
 There are    50 symmetry adapted cartesian basis functions of A   symmetry.
 There are    50 symmetry adapted basis functions of A   symmetry.
    50 basis functions,    84 primitive gaussians,    50 cartesian basis functions
     8 alpha electrons        8 beta electrons
       nuclear repulsion energy        33.3582083234 Hartrees.
 NAtoms=    6 NActive=    6 NUniq=    6 SFac= 1.00D+00 NAtFMM=   60 NAOKFM=F Big=F
 Integral buffers will be    131072 words long.
 Raffenetti 2 integral format.
 Two-electron integral symmetry is turned on.
 One-electron integrals computed using PRISM.
 NBasis=    50 RedAO= T EigKep=  6.92D-03  NBF=    50
 NBsUse=    50 1.00D-06 EigRej= -1.00D+00 NBFU=    50
 Initial guess from the checkpoint file:  "./chk/1.chk"
 B after Tr=     0.000000   -0.000000   -0.000000
         Rot=    1.000000    0.000000   -0.000000    0.000001 Ang=   0.00 deg.
 Keep R1 ints in memory in canonical form, NReq=1686715.
 Requested convergence on RMS density matrix=1.00D-08 within 128 cycles.
 Requested convergence on MAX density matrix=1.00D-06.
 Requested convergence on             energy=1.00D-06.
 No special actions if energy rises.
 SCF Done:  E(RB3LYP) =  -78.5938079616     A.U. after    7 cycles
            NFock=  7  Conv=0.29D-08     -V/T= 2.0104
 Calling FoFJK, ICntrl=      2127 FMM=F ISym2X=0 I1Cent= 0 IOpClX= 0 NMat=1 NMatS=1 NMatT=0.
 ***** Axes restored to original set *****
 -------------------------------------------------------------------
 Center     Atomic                   Forces (Hartrees/Bohr)
 Number     Number              X              Y              Z
 -------------------------------------------------------------------
      1        6          -0.000011799    0.000006130   -0.000017053
      2        6           0.000009688   -0.000013242    0.000013185
      3        1           0.000034996    0.000024135   -0.000035236
      4        1          -0.000034854   -0.000020411    0.000036946
      5        1           0.000054730    0.000004678   -0.000006693
      6        1          -0.000052761   -0.000001291    0.000008851
 -------------------------------------------------------------------
 Cartesian Forces:  Max     0.000054730 RMS     0.000026751

 GradGradGradGradGradGradGradGradGradGradGradGradGradGradGradGradGradGrad
 Berny optimization.
 Using GEDIIS/GDIIS optimizer.
 FormGI is forming the generalized inverse of G from B-inverse, IUseBI=4.
 Internal  Forces:  Max     0.000060003 RMS     0.000032406
 Search for a local minimum.
 Step number   3 out of a maximum of   25
 All quantities printed in internal units (Hartrees-Bohrs-Radians)
 Mixed Optimization -- En-DIIS/RFO-DIIS
 Update second derivatives using D2CorX and points    1    2    3
 DE= -5.28D-05 DEPred=-5.33D-05 R= 9.91D-01
 TightC=F SS=  1.41D+00  RLast= 2.97D-02 DXNew= 5.0454D-01 8.9037D-02
 Trust test= 9.91D-01 RLast= 2.97D-02 DXMaxT set to 3.00D-01
 The second derivative matrix:
                          R1        R2        R3        R4        R5
           R1           0.64014
           R2           0.00145   0.35325
           R3           0.00180  -0.00051   0.35333
           R4           0.00149  -0.00050  -0.00051   0.35326
           R5           0.00151  -0.00050  -0.00051  -0.00050   0.35326
           A1           0.01064  -0.00167  -0.00165  -0.00166  -0.00166
           A2           0.01076  -0.00168  -0.00165  -0.00167  -0.00167
           A3          -0.02140   0.00334   0.00330   0.00332   0.00333
           A4           0.01068  -0.00167  -0.00165  -0.00166  -0.00167
           A5           0.01070  -0.00167  -0.00164  -0.00166  -0.00166
           A6          -0.02138   0.00334   0.00329   0.00332   0.00333
           D1          -0.00010   0.00000   0.00000   0.00000   0.00000
           D2          -0.00001   0.00000   0.00000   0.00000   0.00000
           D3           0.00006  -0.00000  -0.00000  -0.00000  -0.00000
           D4           0.00016  -0.00001  -0.00001  -0.00001  -0.00001
                          A1        A2        A3        A4        A5
           A1           0.15619
           A2          -0.00382   0.15617
           A3           0.00764   0.00766   0.14470
           A4          -0.00382  -0.00383   0.00764   0.15618
           A5          -0.00380  -0.00381   0.00761  -0.00380   0.15622
           A6           0.00762   0.00764  -0.01525   0.00762   0.00758
           D1           0.00002   0.00002  -0.00004   0.00002   0.00002
           D2           0.00000   0.00000  -0.00000   0.00000   0.00000
           D3           0.00000   0.00000  -0.00000   0.00000   0.00000
           D4          -0.00002  -0.00002   0.00003  -0.00002  -0.00002
                          A6        D1        D2        D3        D4
           A6           0.14479
           D1          -0.00004   0.03002
           D2          -0.00000   0.00000   0.03002
           D3          -0.00000  -0.00000  -0.00000   0.03002
           D4           0.00003  -0.00000  -0.00000   0.00000   0.03002
 ITU=  1  1  0
 Use linear search instead of GDIIS.
     Eigenvalues ---    0.03002   0.03002   0.03002   0.11108   0.16000
     Eigenvalues ---    0.16000   0.16000   0.35232   0.35375   0.35376
     Eigenvalues ---    0.35382   0.64276
 RFO step:  Lambda=-3.78297277D-08 EMin= 3.00172433D-02
 Quartic linear search produced a step of -0.00778.
 Iteration  1 RMS(Cart)=  0.00010707 RMS(Int)=  0.00000001
 Iteration  2 RMS(Cart)=  0.00000001 RMS(Int)=  0.00000000
 Variable       Old X    -DE/DX   Delta X   Delta X   Delta X     New X
                                 (Linear)    (Quad)   (Total)
    R1        2.51355   0.00006   0.00005   0.00006   0.00010   2.51366
    R2        2.05333   0.00005  -0.00001   0.00016   0.00015   2.05348
    R3        2.05334   0.00005  -0.00001   0.00015   0.00015   2.05348
    R4        2.05333   0.00005  -0.00001   0.00016   0.00015   2.05348
    R5        2.05333   0.00005  -0.00001   0.00016   0.00015   2.05348
    A1        2.12622  -0.00001  -0.00006   0.00000  -0.00006   2.12616
    A2        2.12622  -0.00001  -0.00007   0.00000  -0.00006   2.12616
    A3        2.03074   0.00001   0.00013  -0.00001   0.00012   2.03086
    A4        2.12623  -0.00001  -0.00007   0.00000  -0.00006   2.12616
    A5        2.12622  -0.00001  -0.00006   0.00000  -0.00006   2.12616
    A6        2.03073   0.00001   0.00013  -0.00000   0.00013   2.03086
    D1       -3.14152  -0.00000  -0.00000  -0.00012  -0.00012   3.14155
    D2        0.00001  -0.00000  -0.00000  -0.00001  -0.00001  -0.00000
    D3       -0.00001   0.00000   0.00000   0.00001   0.00001   0.00000
    D4        3.14152   0.00000   0.00000   0.00012   0.00012  -3.14155
         Item               Value     Threshold  Converged?
 Maximum Force            0.000060     0.000450     YES
 RMS     Force            0.000032     0.000300     YES
 Maximum Displacement     0.000182     0.001800     YES
 RMS     Displacement     0.000107     0.001200     YES
 Predicted change in Energy=-2.218313D-08
 Optimization completed.
    -- Stationary point found.
                           ----------------------------
                           !   Optimized Parameters   !
                           ! (Angstroms and Degrees)  !
 --------------------------                            --------------------------
 ! Name  Definition              Value          Derivative Info.                !
 --------------------------------------------------------------------------------
 ! R1    R(1,2)                  1.3301         -DE/DX =    0.0001              !
 ! R2    R(1,3)                  1.0866         -DE/DX =    0.0001              !
 ! R3    R(1,6)                  1.0866         -DE/DX =    0.0001              !
 ! R4    R(2,4)                  1.0866         -DE/DX =    0.0001              !
 ! R5    R(2,5)                  1.0866         -DE/DX =    0.0001              !
 ! A1    A(2,1,3)              121.8237         -DE/DX =    0.0                 !
 ! A2    A(2,1,6)              121.8237         -DE/DX =    0.0                 !
 ! A3    A(3,1,6)              116.3526         -DE/DX =    0.0                 !
 ! A4    A(1,2,4)              121.8238         -DE/DX =    0.0                 !
 ! A5    A(1,2,5)              121.8237         -DE/DX =    0.0                 !
 ! A6    A(4,2,5)              116.3525         -DE/DX =    0.0                 !
 ! D1    D(3,1,2,4)            180.0043         -DE/DX =    0.0                 !
 ! D2    D(3,1,2,5)              0.0003         -DE/DX =    0.0                 !
 ! D3    D(6,1,2,4)             -0.0003         -DE/DX =    0.0                 !
 ! D4    D(6,1,2,5)           -180.0043         -DE/DX =    0.0                 !
 --------------------------------------------------------------------------------
 GradGradGradGradGradGradGradGradGradGradGradGradGradGradGradGradGradGrad

                          Input orientation:                          
 ---------------------------------------------------------------------
 Center     Atomic      Atomic             Coordinates (Angstroms)
 Number     Number       Type             X           Y           Z
 ---------------------------------------------------------------------
      1          6           0       25.022824  -11.436597    1.935817
      2          6           0       25.677752  -12.082548    2.896558
      3          1           0       25.543796  -10.931251    1.127199
      4          1           0       25.156780  -12.587953    3.705140
      5          1           0       26.762956  -12.133697    2.915640
      6          1           0       23.937615  -11.385506    1.916698
 ---------------------------------------------------------------------
                    Distance matrix (angstroms):
                    1          2          3          4          5
     1  C    0.000000
     2  C    1.330116   0.000000
     3  H    1.086577   2.115197   0.000000
     4  H    2.115199   1.086577   3.088725   0.000000
     5  H    2.115198   1.086576   2.476034   1.846473   0.000000
     6  H    1.086579   2.115200   1.846476   2.476039   3.088726
                    6
     6  H    0.000000
 Stoichiometry    C2H4
 Framework group  C1[X(C2H4)]
 Deg. of freedom    12
 Full point group                 C1      NOp   1
 Largest Abelian subgroup         C1      NOp   1
 Largest concise Abelian subgroup C1      NOp   1
                         Standard orientation:                         
 ---------------------------------------------------------------------
 Center     Atomic      Atomic             Coordinates (Angstroms)
 Number     Number       Type             X           Y           Z
 ---------------------------------------------------------------------
      1          6           0       -0.665058   -0.000000   -0.000009
      2          6           0        0.665058    0.000000   -0.000008
      3          1           0       -1.238017   -0.923237    0.000027
      4          1           0        1.238019    0.923237    0.000025
      5          1           0        1.238018   -0.923236    0.000025
      6          1           0       -1.238019    0.923238    0.000027
 ---------------------------------------------------------------------
 Rotational constants (GHZ):         147.0772695          30.0928766          24.9815119

 **********************************************************************

            Population analysis using the SCF Density.

 **********************************************************************

 Orbital symmetries:
       Occupied  (A) (A) (A) (A) (A) (A) (A) (A)
       Virtual   (A) (A) (A) (A) (A) (A) (A) (A) (A) (A) (A) (A)
                 (A) (A) (A) (A) (A) (A) (A) (A) (A) (A) (A) (A)
                 (A) (A) (A) (A) (A) (A) (A) (A) (A) (A) (A) (A)
                 (A) (A) (A) (A) (A) (A)
 The electronic state is 1-A.
 Alpha  occ. eigenvalues --  -10.18438 -10.18348  -0.75519  -0.57657  -0.46399
 Alpha  occ. eigenvalues --   -0.41582  -0.35182  -0.26746
 Alpha virt. eigenvalues --    0.01741   0.12240   0.14057   0.15815   0.24449
 Alpha virt. eigenvalues --    0.33136   0.47288   0.54826   0.56349   0.63743
 Alpha virt. eigenvalues --    0.65374   0.69917   0.83104   0.84458   0.91325
 Alpha virt. eigenvalues --    0.92178   1.10261   1.18855   1.38517   1.39104
 Alpha virt. eigenvalues --    1.52937   1.83803   1.88829   1.95880   2.03746
 Alpha virt. eigenvalues --    2.04278   2.12955   2.21375   2.36519   2.44613
 Alpha virt. eigenvalues --    2.50927   2.62285   2.67911   2.68011   2.75784
 Alpha virt. eigenvalues --    3.02332   3.16861   3.33778   3.47010   3.76910
 Alpha virt. eigenvalues --    4.17890   4.49566
          Condensed to atoms (all electrons):
               1          2          3          4          5          6
     1  C    4.817332   0.679432   0.388089  -0.035260  -0.035260   0.388088
     2  C    0.679432   4.817332  -0.035260   0.388088   0.388089  -0.035260
     3  H    0.388089  -0.035260   0.595960   0.005418  -0.009822  -0.045596
     4  H   -0.035260   0.388088   0.005418   0.595960  -0.045596  -0.009822
     5  H   -0.035260   0.388089  -0.009822  -0.045596   0.595960   0.005418
     6  H    0.388088  -0.035260  -0.045596  -0.009822   0.005418   0.595961
 Mulliken charges:
               1
     1  C   -0.202422
     2  C   -0.202422
     3  H    0.101211
     4  H    0.101211
     5  H    0.101211
     6  H    0.101211
 Sum of Mulliken charges =   0.00000
 Mulliken charges with hydrogens summed into heavy atoms:
               1
     1  C   -0.000000
     2  C    0.000000
 Electronic spatial extent (au):  <R**2>=             82.1285
 Charge=              0.0000 electrons
 Dipole moment (field-independent basis, Debye):
    X=              0.0000    Y=             -0.0000    Z=              0.0001  Tot=              0.0001
 Quadrupole moment (field-independent basis, Debye-Ang):
   XX=            -12.0266   YY=            -12.1401   ZZ=            -14.9818
   XY=              0.0000   XZ=             -0.0000   YZ=             -0.0000
 Traceless Quadrupole moment (field-independent basis, Debye-Ang):
   XX=              1.0229   YY=              0.9094   ZZ=             -1.9323
   XY=              0.0000   XZ=             -0.0000   YZ=             -0.0000
 Octapole moment (field-independent basis, Debye-Ang**2):
  XXX=              0.0000  YYY=             -0.0000  ZZZ=              0.0001  XYY=             -0.0000
  XXY=              0.0000  XXZ=              0.0002  XZZ=              0.0000  YZZ=             -0.0000
  YYZ=              0.0001  XYZ=             -0.0000
 Hexadecapole moment (field-independent basis, Debye-Ang**3):
 XXXX=            -66.8699 YYYY=            -26.4160 ZZZZ=            -15.4660 XXXY=              0.0000
 XXXZ=             -0.0000 YYYX=              0.0000 YYYZ=             -0.0000 ZZZX=             -0.0000
 ZZZY=             -0.0000 XXYY=            -13.3058 XXZZ=            -14.5900 YYZZ=             -7.5717
 XXYZ=              0.0000 YYXZ=             -0.0000 ZZXY=              0.0000
 N-N= 3.335820832337D+01 E-N=-2.481257637452D+02  KE= 7.778131730460D+01
 1\1\GINC-DESKTOP-PRN5QE3\FOpt\RB3LYP\6-31G(d,p)\C2H4\SHOHEI\27-Oct-202
 3\0\\# B3LYP/6-31G(d,p) OPT FREQ\\1poly\\0,1\C,25.022823986,-11.436597
 1226,1.9358168951\C,25.6777522253,-12.0825480666,2.8965581865\H,25.543
 7958312,-10.9312513349,1.1271991757\H,25.1567801626,-12.5879528158,3.7
 051399984\H,26.7629564497,-12.1336965303,2.9156396192\H,23.9376150452,
 -11.3855064298,1.9166976252\\Version=EM64L-G16RevB.01\State=1-A\HF=-78
 .593808\RMSD=2.941e-09\RMSF=2.675e-05\Dipole=-0.0000003,-0.000029,-0.0
 000188\Quadrupole=0.6946902,-0.7905913,0.0959011,-0.0732466,-0.0043897
 ,-0.9929274\PG=C01 [X(C2H4)]\\@


 ORIGINALITY CONSISTS NOT IN SAYING WHAT NO ONE HAS EVER SAID BEFORE, 
 BUT IN SAYING WHAT YOU THINK YOUR SELF.

                                    -- JAMES F. STEPHEN
 Job cpu time:       0 days  0 hours  0 minutes 13.5 seconds.
 Elapsed time:       0 days  0 hours  0 minutes 13.5 seconds.
 File lengths (MBytes):  RWF=      6 Int=      0 D2E=      0 Chk=      1 Scr=      1
 Normal termination of Gaussian 16 at Fri Oct 27 15:09:46 2023.
 Link1:  Proceeding to internal job step number  2.
 ----------------------------------------------------------------------
 #N Geom=AllCheck Guess=TCheck SCRF=Check GenChk RB3LYP/6-31G(d,p) Freq
 ----------------------------------------------------------------------
 1/10=4,29=7,30=1,38=1,40=1/1,3;
 2/12=2,40=1/2;
 3/5=1,6=6,7=101,11=2,14=-4,25=1,30=1,70=2,71=2,74=-5,116=1,140=1/1,2,3;
 4/5=101/1;
 5/5=2,38=6,98=1/2;
 8/6=4,10=90,11=11/1;
 11/6=1,8=1,9=11,15=111,16=1/1,2,10;
 10/6=1/2;
 6/7=2,8=2,9=2,10=2,28=1/1;
 7/8=1,10=1,25=1/1,2,3,16;
 1/10=4,30=1/3;
 99//99;
 Structure from the checkpoint file:  "./chk/1.chk"
 -----
 1poly
 -----
 Charge =  0 Multiplicity = 1
 Redundant internal coordinates found in file.  (old form).
 C,0,25.022823986,-11.4365971226,1.9358168951
 C,0,25.6777522253,-12.0825480666,2.8965581865
 H,0,25.5437958312,-10.9312513349,1.1271991757
 H,0,25.1567801626,-12.5879528158,3.7051399984
 H,0,26.7629564497,-12.1336965303,2.9156396192
 H,0,23.9376150452,-11.3855064298,1.9166976252
 Recover connectivity data from disk.

 GradGradGradGradGradGradGradGradGradGradGradGradGradGradGradGradGradGrad
 Berny optimization.
 Initialization pass.
                           ----------------------------
                           !    Initial Parameters    !
                           ! (Angstroms and Degrees)  !
 --------------------------                            --------------------------
 ! Name  Definition              Value          Derivative Info.                !
 --------------------------------------------------------------------------------
 ! R1    R(1,2)                  1.3301         calculate D2E/DX2 analytically  !
 ! R2    R(1,3)                  1.0866         calculate D2E/DX2 analytically  !
 ! R3    R(1,6)                  1.0866         calculate D2E/DX2 analytically  !
 ! R4    R(2,4)                  1.0866         calculate D2E/DX2 analytically  !
 ! R5    R(2,5)                  1.0866         calculate D2E/DX2 analytically  !
 ! A1    A(2,1,3)              121.8237         calculate D2E/DX2 analytically  !
 ! A2    A(2,1,6)              121.8237         calculate D2E/DX2 analytically  !
 ! A3    A(3,1,6)              116.3526         calculate D2E/DX2 analytically  !
 ! A4    A(1,2,4)              121.8238         calculate D2E/DX2 analytically  !
 ! A5    A(1,2,5)              121.8237         calculate D2E/DX2 analytically  !
 ! A6    A(4,2,5)              116.3525         calculate D2E/DX2 analytically  !
 ! D1    D(3,1,2,4)           -179.9957         calculate D2E/DX2 analytically  !
 ! D2    D(3,1,2,5)              0.0003         calculate D2E/DX2 analytically  !
 ! D3    D(6,1,2,4)             -0.0003         calculate D2E/DX2 analytically  !
 ! D4    D(6,1,2,5)            179.9957         calculate D2E/DX2 analytically  !
 --------------------------------------------------------------------------------
 Trust Radius=3.00D-01 FncErr=1.00D-07 GrdErr=1.00D-07 EigMax=2.50D+02 EigMin=1.00D-04
 Number of steps in this run=      2 maximum allowed number of steps=      2.
 GradGradGradGradGradGradGradGradGradGradGradGradGradGradGradGradGradGrad

                          Input orientation:                          
 ---------------------------------------------------------------------
 Center     Atomic      Atomic             Coordinates (Angstroms)
 Number     Number       Type             X           Y           Z
 ---------------------------------------------------------------------
      1          6           0       25.022824  -11.436597    1.935817
      2          6           0       25.677752  -12.082548    2.896558
      3          1           0       25.543796  -10.931251    1.127199
      4          1           0       25.156780  -12.587953    3.705140
      5          1           0       26.762956  -12.133697    2.915640
      6          1           0       23.937615  -11.385506    1.916698
 ---------------------------------------------------------------------
                    Distance matrix (angstroms):
                    1          2          3          4          5
     1  C    0.000000
     2  C    1.330116   0.000000
     3  H    1.086577   2.115197   0.000000
     4  H    2.115199   1.086577   3.088725   0.000000
     5  H    2.115198   1.086576   2.476034   1.846473   0.000000
     6  H    1.086579   2.115200   1.846476   2.476039   3.088726
                    6
     6  H    0.000000
 Stoichiometry    C2H4
 Framework group  C1[X(C2H4)]
 Deg. of freedom    12
 Full point group                 C1      NOp   1
 Largest Abelian subgroup         C1      NOp   1
 Largest concise Abelian subgroup C1      NOp   1
                         Standard orientation:                         
 ---------------------------------------------------------------------
 Center     Atomic      Atomic             Coordinates (Angstroms)
 Number     Number       Type             X           Y           Z
 ---------------------------------------------------------------------
      1          6           0       -0.665058   -0.000000   -0.000009
      2          6           0        0.665058    0.000000   -0.000008
      3          1           0       -1.238017   -0.923237    0.000027
      4          1           0        1.238019    0.923237    0.000025
      5          1           0        1.238018   -0.923236    0.000025
      6          1           0       -1.238019    0.923238    0.000027
 ---------------------------------------------------------------------
 Rotational constants (GHZ):         147.0772695          30.0928766          24.9815119
 Standard basis: 6-31G(d,p) (6D, 7F)
 There are    50 symmetry adapted cartesian basis functions of A   symmetry.
 There are    50 symmetry adapted basis functions of A   symmetry.
    50 basis functions,    84 primitive gaussians,    50 cartesian basis functions
     8 alpha electrons        8 beta electrons
       nuclear repulsion energy        33.3582083234 Hartrees.
 NAtoms=    6 NActive=    6 NUniq=    6 SFac= 1.00D+00 NAtFMM=   60 NAOKFM=F Big=F
 Integral buffers will be    131072 words long.
 Raffenetti 2 integral format.
 Two-electron integral symmetry is turned on.
 One-electron integrals computed using PRISM.
 NBasis=    50 RedAO= T EigKep=  6.92D-03  NBF=    50
 NBsUse=    50 1.00D-06 EigRej= -1.00D+00 NBFU=    50
 Initial guess from the checkpoint file:  "./chk/1.chk"
 B after Tr=     0.000000    0.000000    0.000000
         Rot=    1.000000    0.000000    0.000000    0.000000 Ang=   0.00 deg.
 Keep R1 ints in memory in canonical form, NReq=1686715.
 Requested convergence on RMS density matrix=1.00D-08 within 128 cycles.
 Requested convergence on MAX density matrix=1.00D-06.
 Requested convergence on             energy=1.00D-06.
 No special actions if energy rises.
 SCF Done:  E(RB3LYP) =  -78.5938079616     A.U. after    1 cycles
            NFock=  1  Conv=0.25D-09     -V/T= 2.0104
 DoSCS=F DFT=T ScalE2(SS,OS)=  1.000000  1.000000
 Range of M.O.s used for correlation:     1    50
 NBasis=    50 NAE=     8 NBE=     8 NFC=     0 NFV=     0
 NROrb=     50 NOA=     8 NOB=     8 NVA=    42 NVB=    42
 Symmetrizing basis deriv contribution to polar:
 IMax=3 JMax=2 DiffMx= 0.00D+00
 G2DrvN: will do     7 centers at a time, making    1 passes.
 Calling FoFCou, ICntrl=  3107 FMM=F I1Cent=   0 AccDes= 0.00D+00.
 End of G2Drv F.D. properties file   721 does not exist.
 End of G2Drv F.D. properties file   722 does not exist.
 End of G2Drv F.D. properties file   788 does not exist.
          IDoAtm=111111
          Differentiating once with respect to electric field.
                with respect to dipole field.
          Differentiating once with respect to nuclear coordinates.
 Keep R1 ints in memory in canonical form, NReq=1688776.
          There are    21 degrees of freedom in the 1st order CPHF.  IDoFFX=6 NUNeed=     3.
     18 vectors produced by pass  0 Test12= 1.60D-15 4.76D-09 XBig12= 3.18D+01 4.82D+00.
 AX will form    18 AO Fock derivatives at one time.
     18 vectors produced by pass  1 Test12= 1.60D-15 4.76D-09 XBig12= 3.45D+00 6.76D-01.
     18 vectors produced by pass  2 Test12= 1.60D-15 4.76D-09 XBig12= 3.41D-02 8.12D-02.
     18 vectors produced by pass  3 Test12= 1.60D-15 4.76D-09 XBig12= 4.68D-05 3.34D-03.
     17 vectors produced by pass  4 Test12= 1.60D-15 4.76D-09 XBig12= 1.97D-08 5.01D-05.
      6 vectors produced by pass  5 Test12= 1.60D-15 4.76D-09 XBig12= 1.23D-11 1.17D-06.
      1 vectors produced by pass  6 Test12= 1.60D-15 4.76D-09 XBig12= 3.34D-15 2.14D-08.
 InvSVY:  IOpt=1 It=  1 EMax= 8.88D-16
 Solved reduced A of dimension    96 with    21 vectors.
 Isotropic polarizability for W=    0.000000       20.22 Bohr**3.
 End of Minotr F.D. properties file   721 does not exist.
 End of Minotr F.D. properties file   722 does not exist.
 End of Minotr F.D. properties file   788 does not exist.

 **********************************************************************

            Population analysis using the SCF Density.

 **********************************************************************

 Orbital symmetries:
       Occupied  (A) (A) (A) (A) (A) (A) (A) (A)
       Virtual   (A) (A) (A) (A) (A) (A) (A) (A) (A) (A) (A) (A)
                 (A) (A) (A) (A) (A) (A) (A) (A) (A) (A) (A) (A)
                 (A) (A) (A) (A) (A) (A) (A) (A) (A) (A) (A) (A)
                 (A) (A) (A) (A) (A) (A)
 The electronic state is 1-A.
 Alpha  occ. eigenvalues --  -10.18438 -10.18348  -0.75519  -0.57657  -0.46399
 Alpha  occ. eigenvalues --   -0.41582  -0.35182  -0.26746
 Alpha virt. eigenvalues --    0.01741   0.12240   0.14057   0.15815   0.24449
 Alpha virt. eigenvalues --    0.33136   0.47288   0.54826   0.56349   0.63743
 Alpha virt. eigenvalues --    0.65374   0.69917   0.83104   0.84458   0.91325
 Alpha virt. eigenvalues --    0.92178   1.10261   1.18855   1.38517   1.39104
 Alpha virt. eigenvalues --    1.52937   1.83803   1.88829   1.95880   2.03746
 Alpha virt. eigenvalues --    2.04278   2.12955   2.21375   2.36519   2.44613
 Alpha virt. eigenvalues --    2.50927   2.62285   2.67911   2.68011   2.75784
 Alpha virt. eigenvalues --    3.02332   3.16861   3.33778   3.47010   3.76910
 Alpha virt. eigenvalues --    4.17890   4.49566
          Condensed to atoms (all electrons):
               1          2          3          4          5          6
     1  C    4.817332   0.679432   0.388089  -0.035260  -0.035260   0.388088
     2  C    0.679432   4.817332  -0.035260   0.388088   0.388089  -0.035260
     3  H    0.388089  -0.035260   0.595960   0.005418  -0.009822  -0.045596
     4  H   -0.035260   0.388088   0.005418   0.595960  -0.045596  -0.009822
     5  H   -0.035260   0.388089  -0.009822  -0.045596   0.595960   0.005418
     6  H    0.388088  -0.035260  -0.045596  -0.009822   0.005418   0.595961
 Mulliken charges:
               1
     1  C   -0.202422
     2  C   -0.202422
     3  H    0.101211
     4  H    0.101211
     5  H    0.101211
     6  H    0.101211
 Sum of Mulliken charges =   0.00000
 Mulliken charges with hydrogens summed into heavy atoms:
               1
     1  C   -0.000000
     2  C    0.000000
 APT charges:
               1
     1  C   -0.042479
     2  C   -0.042480
     3  H    0.021240
     4  H    0.021240
     5  H    0.021240
     6  H    0.021240
 Sum of APT charges =   0.00000
 APT charges with hydrogens summed into heavy atoms:
               1
     1  C    0.000000
     2  C   -0.000000
 Electronic spatial extent (au):  <R**2>=             82.1285
 Charge=              0.0000 electrons
 Dipole moment (field-independent basis, Debye):
    X=              0.0000    Y=             -0.0000    Z=              0.0001  Tot=              0.0001
 Quadrupole moment (field-independent basis, Debye-Ang):
   XX=            -12.0266   YY=            -12.1401   ZZ=            -14.9818
   XY=              0.0000   XZ=             -0.0000   YZ=             -0.0000
 Traceless Quadrupole moment (field-independent basis, Debye-Ang):
   XX=              1.0229   YY=              0.9094   ZZ=             -1.9323
   XY=              0.0000   XZ=             -0.0000   YZ=             -0.0000
 Octapole moment (field-independent basis, Debye-Ang**2):
  XXX=              0.0000  YYY=             -0.0000  ZZZ=              0.0001  XYY=             -0.0000
  XXY=              0.0000  XXZ=              0.0002  XZZ=              0.0000  YZZ=             -0.0000
  YYZ=              0.0001  XYZ=             -0.0000
 Hexadecapole moment (field-independent basis, Debye-Ang**3):
 XXXX=            -66.8699 YYYY=            -26.4160 ZZZZ=            -15.4660 XXXY=              0.0000
 XXXZ=             -0.0000 YYYX=              0.0000 YYYZ=             -0.0000 ZZZX=             -0.0000
 ZZZY=             -0.0000 XXYY=            -13.3058 XXZZ=            -14.5900 YYZZ=             -7.5717
 XXYZ=              0.0000 YYXZ=             -0.0000 ZZXY=              0.0000
 N-N= 3.335820832337D+01 E-N=-2.481257637247D+02  KE= 7.778131729360D+01
  Exact polarizability:  31.070  -0.000  20.691   0.000   0.000   8.898
 Approx polarizability:  47.449  -0.000  25.770   0.000   0.000  11.743
 Calling FoFJK, ICntrl=    100127 FMM=F ISym2X=0 I1Cent= 0 IOpClX= 0 NMat=1 NMatS=1 NMatT=0.
 Full mass-weighted force constant matrix:
 Low frequencies ---  -24.9510  -13.7949  -10.4221    0.0003    0.0005    0.0010
 Low frequencies ---  831.0936  960.9812  976.6155
 Diagonal vibrational polarizability:
        0.1144694       0.1044363       2.2355129
 Harmonic frequencies (cm**-1), IR intensities (KM/Mole), Raman scattering
 activities (A**4/AMU), depolarization ratios for plane and unpolarized
 incident light, reduced masses (AMU), force constants (mDyne/A),
 and normal coordinates:
                      1                      2                      3
                      A                      A                      A
 Frequencies --    831.0936               960.9812               976.6155
 Red. masses --      1.0427                 1.5201                 1.1607
 Frc consts  --      0.4243                 0.8271                 0.6523
 IR Inten    --      0.6588                 0.0000                79.2303
  Atom  AN      X      Y      Z        X      Y      Z        X      Y      Z
     1   6     0.00  -0.04   0.00    -0.00   0.00  -0.15    -0.00   0.00  -0.08
     2   6     0.00  -0.04  -0.00    -0.00   0.00   0.15     0.00  -0.00  -0.08
     3   1    -0.44   0.24  -0.00     0.00   0.00   0.49     0.00   0.00   0.50
     4   1    -0.44   0.24   0.00     0.00   0.00  -0.49    -0.00  -0.00   0.50
     5   1     0.44   0.24  -0.00     0.00  -0.00  -0.49    -0.00   0.00   0.50
     6   1     0.44   0.24   0.00     0.00  -0.00   0.49     0.00  -0.00   0.50
                      4                      5                      6
                      A                      A                      A
 Frequencies --   1069.1899              1241.3759              1388.4899
 Red. masses --      1.0078                 1.5260                 1.2137
 Frc consts  --      0.6788                 1.3855                 1.3786
 IR Inten    --      0.0000                 0.0000                 0.0000
  Atom  AN      X      Y      Z        X      Y      Z        X      Y      Z
     1   6    -0.00   0.00  -0.00    -0.00   0.15   0.00    -0.10   0.00  -0.00
     2   6     0.00  -0.00   0.00    -0.00  -0.15   0.00     0.10  -0.00  -0.00
     3   1     0.00  -0.00  -0.50     0.47  -0.14   0.00    -0.45   0.20   0.00
     4   1    -0.00   0.00  -0.50    -0.47   0.14   0.00     0.45  -0.20   0.00
     5   1     0.00   0.00   0.50     0.47   0.14  -0.00     0.45   0.20   0.00
     6   1    -0.00  -0.00   0.50    -0.47  -0.14  -0.00    -0.45  -0.20   0.00
                      7                      8                      9
                      A                      A                      A
 Frequencies --   1483.0312              1715.2407              3145.6089
 Red. masses --      1.1120                 3.1906                 1.0477
 Frc consts  --      1.4410                 5.5306                 6.1080
 IR Inten    --      5.5695                 0.0000                17.0322
  Atom  AN      X      Y      Z        X      Y      Z        X      Y      Z
     1   6    -0.07  -0.00   0.00     0.32   0.00  -0.00     0.04  -0.00  -0.00
     2   6    -0.07   0.00  -0.00    -0.32  -0.00  -0.00     0.04   0.00   0.00
     3   1     0.41  -0.28  -0.00    -0.23   0.38   0.00    -0.25  -0.43   0.00
     4   1     0.41  -0.28   0.00     0.23  -0.38   0.00    -0.25  -0.43  -0.00
     5   1     0.41   0.28   0.00     0.23   0.38   0.00    -0.25   0.43  -0.00
     6   1     0.41   0.28  -0.00    -0.23  -0.38   0.00    -0.25   0.43   0.00
                     10                     11                     12
                      A                      A                      A
 Frequencies --   3161.3504              3221.3284              3247.2378
 Red. masses --      1.0747                 1.1146                 1.1177
 Frc consts  --      6.3285                 6.8145                 6.9437
 IR Inten    --      0.0000                 0.0000                30.8637
  Atom  AN      X      Y      Z        X      Y      Z        X      Y      Z
     1   6     0.06  -0.00  -0.00    -0.00  -0.07  -0.00    -0.00  -0.07  -0.00
     2   6    -0.06  -0.00  -0.00    -0.00   0.07  -0.00     0.00  -0.07   0.00
     3   1    -0.26  -0.43   0.00     0.27   0.42  -0.00     0.27   0.42  -0.00
     4   1     0.26   0.43   0.00    -0.27  -0.42  -0.00     0.27   0.42   0.00
     5   1     0.26  -0.43   0.00     0.27  -0.42   0.00    -0.27   0.42  -0.00
     6   1    -0.26   0.43   0.00    -0.27   0.42   0.00    -0.27   0.42   0.00

 -------------------
 - Thermochemistry -
 -------------------
 Temperature   298.150 Kelvin.  Pressure   1.00000 Atm.
 Atom     1 has atomic number  6 and mass  12.00000
 Atom     2 has atomic number  6 and mass  12.00000
 Atom     3 has atomic number  1 and mass   1.00783
 Atom     4 has atomic number  1 and mass   1.00783
 Atom     5 has atomic number  1 and mass   1.00783
 Atom     6 has atomic number  1 and mass   1.00783
 Molecular mass:    28.03130 amu.
 Principal axes and moments of inertia in atomic units:
                           1         2         3
     Eigenvalues --    12.27070  59.97237  72.24307
           X            1.00000  -0.00000  -0.00000
           Y            0.00000   1.00000  -0.00000
           Z            0.00000   0.00000   1.00000
 This molecule is an asymmetric top.
 Rotational symmetry number  1.
 Rotational temperatures (Kelvin)      7.05860     1.44423     1.19892
 Rotational constants (GHZ):         147.07727    30.09288    24.98151
 Zero-point vibrational energy     134230.2 (Joules/Mol)
                                   32.08180 (Kcal/Mol)
 Vibrational temperatures:   1195.76  1382.64  1405.13  1538.33  1786.06
          (Kelvin)           1997.73  2133.75  2467.85  4525.83  4548.48
                             4634.77  4672.05
 
 Zero-point correction=                           0.051126 (Hartree/Particle)
 Thermal correction to Energy=                    0.054169
 Thermal correction to Enthalpy=                  0.055113
 Thermal correction to Gibbs Free Energy=         0.028943
 Sum of electronic and zero-point Energies=            -78.542682
 Sum of electronic and thermal Energies=               -78.539639
 Sum of electronic and thermal Enthalpies=             -78.538695
 Sum of electronic and thermal Free Energies=          -78.564865
 
                     E (Thermal)             CV                S
                      KCal/Mol        Cal/Mol-Kelvin    Cal/Mol-Kelvin
 Total                   33.991              8.099             55.079
 Electronic               0.000              0.000              0.000
 Translational            0.889              2.981             35.927
 Rotational               0.889              2.981             18.614
 Vibrational             32.214              2.138              0.537
                       Q            Log10(Q)             Ln(Q)
 Total Bot       0.486532D-13        -13.312889        -30.654059
 Total V=0       0.159673D+11         10.203233         23.493812
 Vib (Bot)       0.319550D-23        -23.495462        -54.100300
 Vib (V=0)       0.104872D+01          0.020660          0.047571
 Electronic      0.100000D+01          0.000000          0.000000
 Translational   0.583336D+07          6.765919         15.579104
 Rotational      0.261008D+04          3.416654          7.867137
 ***** Axes restored to original set *****
 -------------------------------------------------------------------
 Center     Atomic                   Forces (Hartrees/Bohr)
 Number     Number              X              Y              Z
 -------------------------------------------------------------------
      1        6          -0.000011799    0.000006131   -0.000017054
      2        6           0.000009690   -0.000013243    0.000013186
      3        1           0.000034996    0.000024135   -0.000035235
      4        1          -0.000034854   -0.000020410    0.000036945
      5        1           0.000054729    0.000004678   -0.000006693
      6        1          -0.000052761   -0.000001291    0.000008851
 -------------------------------------------------------------------
 Cartesian Forces:  Max     0.000054729 RMS     0.000026751
 FormGI is forming the generalized inverse of G from B-inverse, IUseBI=4.

 GradGradGradGradGradGradGradGradGradGradGradGradGradGradGradGradGradGrad
 Berny optimization.
 Internal  Forces:  Max     0.000060004 RMS     0.000032406
 Search for a local minimum.
 Step number   1 out of a maximum of    2
 All quantities printed in internal units (Hartrees-Bohrs-Radians)
 Second derivative matrix not updated -- analytic derivatives used.
 The second derivative matrix:
                          R1        R2        R3        R4        R5
           R1           0.64917
           R2           0.00647   0.35993
           R3           0.00647   0.00199   0.35992
           R4           0.00647  -0.00047   0.00069   0.35993
           R5           0.00647   0.00069  -0.00047   0.00199   0.35993
           A1           0.01064   0.00461  -0.01165   0.00441  -0.00342
           A2           0.01064  -0.01165   0.00461  -0.00342   0.00441
           A3          -0.02128   0.00704   0.00704  -0.00099  -0.00099
           A4           0.01064   0.00441  -0.00342   0.00461  -0.01165
           A5           0.01064  -0.00342   0.00441  -0.01165   0.00461
           A6          -0.02128  -0.00099  -0.00099   0.00704   0.00704
           D1          -0.00000  -0.00000  -0.00000  -0.00000  -0.00000
           D2          -0.00000  -0.00000  -0.00000   0.00000   0.00000
           D3           0.00000   0.00000   0.00000  -0.00000  -0.00000
           D4           0.00000   0.00000   0.00000   0.00000   0.00000
                          A1        A2        A3        A4        A5
           A1           0.08155
           A2          -0.04482   0.08155
           A3          -0.03673  -0.03673   0.07346
           A4           0.01049  -0.00906  -0.00143   0.08155
           A5          -0.00906   0.01049  -0.00143  -0.04482   0.08155
           A6          -0.00143  -0.00143   0.00287  -0.03673  -0.03673
           D1          -0.00000  -0.00000   0.00000  -0.00000  -0.00000
           D2          -0.00000  -0.00000   0.00000   0.00000   0.00000
           D3           0.00000   0.00000  -0.00000  -0.00000  -0.00000
           D4           0.00000   0.00000  -0.00000   0.00000   0.00000
                          A6        D1        D2        D3        D4
           A6           0.07346
           D1           0.00000   0.03202
           D2          -0.00000   0.00830   0.02525
           D3           0.00000   0.00830  -0.00865   0.02525
           D4          -0.00000  -0.01542   0.00830   0.00830   0.03202
 ITU=  0
     Eigenvalues ---    0.03320   0.03391   0.04743   0.10513   0.10653
     Eigenvalues ---    0.11144   0.14320   0.35937   0.35949   0.36215
     Eigenvalues ---    0.36245   0.65221
 Angle between quadratic step and forces=  29.20 degrees.
 Linear search not attempted -- first point.
 Iteration  1 RMS(Cart)=  0.00010209 RMS(Int)=  0.00000001
 Iteration  2 RMS(Cart)=  0.00000001 RMS(Int)=  0.00000001
 Variable       Old X    -DE/DX   Delta X   Delta X   Delta X     New X
                                 (Linear)    (Quad)   (Total)
    R1        2.51355   0.00006   0.00000   0.00010   0.00010   2.51365
    R2        2.05333   0.00005   0.00000   0.00014   0.00014   2.05348
    R3        2.05334   0.00005   0.00000   0.00014   0.00014   2.05348
    R4        2.05333   0.00005   0.00000   0.00014   0.00014   2.05348
    R5        2.05333   0.00005   0.00000   0.00014   0.00014   2.05348
    A1        2.12622  -0.00001   0.00000  -0.00006  -0.00006   2.12616
    A2        2.12622  -0.00001   0.00000  -0.00006  -0.00006   2.12616
    A3        2.03074   0.00001   0.00000   0.00013   0.00013   2.03086
    A4        2.12623  -0.00001   0.00000  -0.00006  -0.00006   2.12616
    A5        2.12622  -0.00001   0.00000  -0.00006  -0.00006   2.12616
    A6        2.03073   0.00001   0.00000   0.00013   0.00013   2.03086
    D1       -3.14152  -0.00000   0.00000  -0.00007  -0.00007   3.14159
    D2        0.00001  -0.00000   0.00000  -0.00001  -0.00001   0.00000
    D3       -0.00001   0.00000   0.00000   0.00001   0.00001   0.00000
    D4        3.14152   0.00000   0.00000   0.00007   0.00007  -3.14159
         Item               Value     Threshold  Converged?
 Maximum Force            0.000060     0.000450     YES
 RMS     Force            0.000032     0.000300     YES
 Maximum Displacement     0.000175     0.001800     YES
 RMS     Displacement     0.000102     0.001200     YES
 Predicted change in Energy=-2.130919D-08
 Optimization completed.
    -- Stationary point found.
                           ----------------------------
                           !   Optimized Parameters   !
                           ! (Angstroms and Degrees)  !
 --------------------------                            --------------------------
 ! Name  Definition              Value          Derivative Info.                !
 --------------------------------------------------------------------------------
 ! R1    R(1,2)                  1.3301         -DE/DX =    0.0001              !
 ! R2    R(1,3)                  1.0866         -DE/DX =    0.0001              !
 ! R3    R(1,6)                  1.0866         -DE/DX =    0.0001              !
 ! R4    R(2,4)                  1.0866         -DE/DX =    0.0001              !
 ! R5    R(2,5)                  1.0866         -DE/DX =    0.0001              !
 ! A1    A(2,1,3)              121.8237         -DE/DX =    0.0                 !
 ! A2    A(2,1,6)              121.8237         -DE/DX =    0.0                 !
 ! A3    A(3,1,6)              116.3526         -DE/DX =    0.0                 !
 ! A4    A(1,2,4)              121.8238         -DE/DX =    0.0                 !
 ! A5    A(1,2,5)              121.8237         -DE/DX =    0.0                 !
 ! A6    A(4,2,5)              116.3525         -DE/DX =    0.0                 !
 ! D1    D(3,1,2,4)            180.0043         -DE/DX =    0.0                 !
 ! D2    D(3,1,2,5)              0.0003         -DE/DX =    0.0                 !
 ! D3    D(6,1,2,4)             -0.0003         -DE/DX =    0.0                 !
 ! D4    D(6,1,2,5)           -180.0043         -DE/DX =    0.0                 !
 --------------------------------------------------------------------------------
 GradGradGradGradGradGradGradGradGradGradGradGradGradGradGradGradGradGrad


 ----------------------------------------------------------------------

 Electric dipole moment (input orientation):
 (Debye = 10**-18 statcoulomb cm , SI units = C m)
                  (au)            (Debye)         (10**-30 SI)
   Tot        0.345858D-04      0.879083D-04      0.293231D-03
   x          0.000000D+00      0.000000D+00      0.000000D+00
   y         -0.290473D-04     -0.738309D-04     -0.246274D-03
   z         -0.187731D-04     -0.477165D-04     -0.159165D-03

 Dipole polarizability, Alpha (input orientation).
 (esu units = cm**3 , SI units = C**2 m**2 J**-1)
 Alpha(0;0):
               (au)            (10**-24 esu)      (10**-40 SI)
   iso        0.202197D+02      0.299624D+01      0.333377D+01
   aniso      0.192142D+02      0.284725D+01      0.316799D+01
   xx         0.231967D+02      0.343740D+01      0.382463D+01
   yx        -0.277800D+01     -0.411657D+00     -0.458030D+00
   yy         0.148408D+02      0.219919D+01      0.244692D+01
   zx         0.349918D+01      0.518525D+00      0.576937D+00
   zy        -0.901768D+01     -0.133628D+01     -0.148682D+01
   zz         0.226214D+02      0.335214D+01      0.372976D+01

 ----------------------------------------------------------------------

 Dipole orientation:
     6         47.35202854         15.01939061         15.76890133
     6         48.57996709         17.21239303         15.79825830
     1         48.34492185         13.22217912         15.78804790
     1         47.58707445         19.00960801         15.77924214
     1         50.63075130         17.30449351         15.84268659
     1         45.30123652         14.92728930         15.72460362

 Electric dipole moment (dipole orientation):
 (Debye = 10**-18 statcoulomb cm , SI units = C m)
                  (au)            (Debye)         (10**-30 SI)
   Tot        0.345870D-04      0.879114D-04      0.293241D-03
   x          0.000000D+00      0.000000D+00      0.000000D+00
   y          0.000000D+00      0.000000D+00      0.000000D+00
   z          0.345870D-04      0.879114D-04      0.293241D-03

 Dipole polarizability, Alpha (dipole orientation).
 (esu units = cm**3 , SI units = C**2 m**2 J**-1)
 Alpha(0;0):
               (au)            (10**-24 esu)      (10**-40 SI)
   iso        0.202197D+02      0.299624D+01      0.333377D+01
   aniso      0.192142D+02      0.284725D+01      0.316799D+01
   xx         0.231626D+02      0.343234D+01      0.381899D+01
   yx         0.442331D+01      0.655468D+00      0.729306D+00
   yy         0.285913D+02      0.423680D+01      0.471407D+01
   zx         0.313538D+00      0.464615D-01      0.516954D-01
   zy         0.121136D+00      0.179505D-01      0.199726D-01
   zz         0.890505D+01      0.131959D+01      0.146825D+01

 ----------------------------------------------------------------------
 1\1\GINC-DESKTOP-PRN5QE3\Freq\RB3LYP\6-31G(d,p)\C2H4\SHOHEI\27-Oct-202
 3\0\\#N Geom=AllCheck Guess=TCheck SCRF=Check GenChk RB3LYP/6-31G(d,p)
  Freq\\1poly\\0,1\C,25.022823986,-11.4365971226,1.9358168951\C,25.6777
 522253,-12.0825480666,2.8965581865\H,25.5437958312,-10.9312513349,1.12
 71991757\H,25.1567801626,-12.5879528158,3.7051399984\H,26.7629564497,-
 12.1336965303,2.9156396192\H,23.9376150452,-11.3855064298,1.9166976252
 \\Version=EM64L-G16RevB.01\State=1-A\HF=-78.593808\RMSD=2.470e-10\RMSF
 =2.675e-05\ZeroPoint=0.0511256\Thermal=0.0541686\Dipole=-0.0000003,-0.
 000029,-0.0000188\DipoleDeriv=0.1002231,0.0196726,-0.0504611,0.0196872
 ,-0.1768534,-0.1368402,-0.0504533,-0.1368693,-0.0508072,0.1002181,0.01
 96661,-0.0504701,0.0196529,-0.1768097,-0.1368866,-0.0504769,-0.1368604
 ,-0.0508477,0.0066917,-0.0352673,0.0613477,-0.0243628,0.0725806,0.0936
 719,0.0445207,0.0942879,-0.0155526,0.0066927,-0.0352651,0.0613505,-0.0
 243614,0.0725624,0.0936943,0.0445223,0.0942815,-0.0155356,-0.1069119,0
 .0155976,-0.0108824,0.0047037,0.1042542,0.0431862,0.0059512,0.0425792,
 0.0663769,-0.1069136,0.0155961,-0.0108846,0.0046804,0.104266,0.0431745
 ,0.0059359,0.0425811,0.0663661\Polar=23.1967481,-2.7779967,14.8408375,
 3.499179,-9.0176843,22.6213676\Quadrupole=0.6946902,-0.7905913,0.09590
 11,-0.0732466,-0.0043897,-0.9929274\PG=C01 [X(C2H4)]\NImag=0\\0.696406
 17,-0.07069476,0.32206612,0.07670360,-0.32601507,0.60718373,-0.2289172
 0,0.11559072,-0.16830189,0.69641043,0.11559185,-0.17833750,0.19785719,
 -0.07070493,0.32208440,-0.16830097,0.19785463,-0.34205549,0.07669792,-
 0.32602255,0.60716435,-0.12786361,-0.06467949,0.10486418,0.01167240,0.
 00857241,-0.01358833,0.12542657,-0.06262476,-0.10209494,0.10499766,-0.
 00884969,-0.00255674,0.01238402,0.06775612,0.09893556,0.10169537,0.105
 11258,-0.20412219,0.01329831,0.01142353,-0.01320994,-0.11014314,-0.119
 00391,0.21397344,0.01167239,0.00857253,-0.01358821,-0.12786336,-0.0646
 8440,0.10486015,-0.00062959,0.00210465,-0.00249007,0.12542634,-0.00885
 039,-0.00255686,0.01238360,-0.06263151,-0.10211054,0.10500609,0.002104
 80,0.00833717,0.00727585,0.06776230,0.09895049,0.01329783,0.01142396,-
 0.01320976,0.10169027,0.10511783,-0.20410561,-0.00248995,0.00727681,0.
 00203581,-0.11013847,-0.11901050,0.21395747,-0.01223169,-0.00044196,0.
 00164009,-0.33907051,0.01166734,-0.00130862,0.00135147,-0.00019963,-0.
 00024537,-0.00995727,0.00181394,-0.00211461,0.35922695,0.01698058,0.00
 411115,0.00067051,0.00961504,-0.04319055,0.01010660,-0.00035149,-0.005
 69137,-0.00459944,-0.01340366,0.00307093,-0.00020816,-0.01448378,0.033
 72828,-0.02524624,0.00163099,0.00402631,0.00186168,0.00999360,-0.05181
 982,-0.00001062,-0.00460826,-0.00157262,0.02136715,-0.00104715,0.00289
 488,0.00387909,-0.01383525,0.04538048,-0.33906606,0.01165296,-0.001317
 77,-0.01223176,-0.00044228,0.00163986,-0.00995725,0.00181332,-0.002115
 09,0.00135149,-0.00019914,-0.00024507,0.00068105,0.00164332,-0.0018510
 7,0.35922253,0.00959748,-0.04318797,0.01010611,0.01698038,0.00411094,0
 .00067122,-0.01340235,0.00307033,-0.00020862,-0.00035142,-0.00569119,-
 0.00459994,0.00164409,0.00797155,0.00786607,-0.01446818,0.03372635,0.0
 0185041,0.00999291,-0.05182259,-0.02524628,0.00163041,0.00402652,0.021
 36786,-0.00104632,0.00289549,-0.00001056,-0.00460790,-0.00157279,-0.00
 185057,0.00786574,0.00109077,0.00388914,-0.01383484,0.04538259\\0.0000
 1180,-0.00000613,0.00001705,-0.00000969,0.00001324,-0.00001319,-0.0000
 3500,-0.00002413,0.00003524,0.00003485,0.00002041,-0.00003695,-0.00005
 473,-0.00000468,0.00000669,0.00005276,0.00000129,-0.00000885\\\@


 DO NOT LET SELFISH MEN OR GREEDY INTERESTS SKIN YOUR COUNTRY OF ITS
 BEAUTY, ITS RICHES, OR ITS ROMANCE. -- THEODORE ROOSEVELT
 Job cpu time:       0 days  0 hours  0 minutes 20.4 seconds.
 Elapsed time:       0 days  0 hours  0 minutes 20.4 seconds.
 File lengths (MBytes):  RWF=      6 Int=      0 D2E=      0 Chk=      1 Scr=      1
 Normal termination of Gaussian 16 at Fri Oct 27 15:10:07 2023.
