 Entering Gaussian System, Link 0=g16
 Input=./com/10.com
 Output=./log/10.log
 Initial command:
 /home/shohei/gaussian/g16/l1.exe "/home/shohei/gaussian/scratch/Gau-26392.inp" -scrdir="/home/shohei/gaussian/scratch/"
 Entering Link 1 = /home/shohei/gaussian/g16/l1.exe PID=     26394.
  
 Copyright (c) 1988-2017, Gaussian, Inc.  All Rights Reserved.
  
 This is part of the Gaussian(R) 16 program.  It is based on
 the Gaussian(R) 09 system (copyright 2009, Gaussian, Inc.),
 the Gaussian(R) 03 system (copyright 2003, Gaussian, Inc.),
 the Gaussian(R) 98 system (copyright 1998, Gaussian, Inc.),
 the Gaussian(R) 94 system (copyright 1995, Gaussian, Inc.),
 the Gaussian 92(TM) system (copyright 1992, Gaussian, Inc.),
 the Gaussian 90(TM) system (copyright 1990, Gaussian, Inc.),
 the Gaussian 88(TM) system (copyright 1988, Gaussian, Inc.),
 the Gaussian 86(TM) system (copyright 1986, Carnegie Mellon
 University), and the Gaussian 82(TM) system (copyright 1983,
 Carnegie Mellon University). Gaussian is a federally registered
 trademark of Gaussian, Inc.
  
 This software contains proprietary and confidential information,
 including trade secrets, belonging to Gaussian, Inc.
  
 This software is provided under written license and may be
 used, copied, transmitted, or stored only in accord with that
 written license.
  
 The following legend is applicable only to US Government
 contracts under FAR:
  
                    RESTRICTED RIGHTS LEGEND
  
 Use, reproduction and disclosure by the US Government is
 subject to restrictions as set forth in subparagraphs (a)
 and (c) of the Commercial Computer Software - Restricted
 Rights clause in FAR 52.227-19.
  
 Gaussian, Inc.
 340 Quinnipiac St., Bldg. 40, Wallingford CT 06492
  
  
 ---------------------------------------------------------------
 Warning -- This program may not be used in any manner that
 competes with the business of Gaussian, Inc. or will provide
 assistance to any competitor of Gaussian, Inc.  The licensee
 of this program is prohibited from giving any competitor of
 Gaussian, Inc. access to this program.  By using this program,
 the user acknowledges that Gaussian, Inc. is engaged in the
 business of creating and licensing software in the field of
 computational chemistry and represents and warrants to the
 licensee that it is not a competitor of Gaussian, Inc. and that
 it will not use this program in any manner prohibited above.
 ---------------------------------------------------------------
  

 Cite this work as:
 Gaussian 16, Revision B.01,
 M. J. Frisch, G. W. Trucks, H. B. Schlegel, G. E. Scuseria, 
 M. A. Robb, J. R. Cheeseman, G. Scalmani, V. Barone, 
 G. A. Petersson, H. Nakatsuji, X. Li, M. Caricato, A. V. Marenich, 
 J. Bloino, B. G. Janesko, R. Gomperts, B. Mennucci, H. P. Hratchian, 
 J. V. Ortiz, A. F. Izmaylov, J. L. Sonnenberg, D. Williams-Young, 
 F. Ding, F. Lipparini, F. Egidi, J. Goings, B. Peng, A. Petrone, 
 T. Henderson, D. Ranasinghe, V. G. Zakrzewski, J. Gao, N. Rega, 
 G. Zheng, W. Liang, M. Hada, M. Ehara, K. Toyota, R. Fukuda, 
 J. Hasegawa, M. Ishida, T. Nakajima, Y. Honda, O. Kitao, H. Nakai, 
 T. Vreven, K. Throssell, J. A. Montgomery, Jr., J. E. Peralta, 
 F. Ogliaro, M. J. Bearpark, J. J. Heyd, E. N. Brothers, K. N. Kudin, 
 V. N. Staroverov, T. A. Keith, R. Kobayashi, J. Normand, 
 K. Raghavachari, A. P. Rendell, J. C. Burant, S. S. Iyengar, 
 J. Tomasi, M. Cossi, J. M. Millam, M. Klene, C. Adamo, R. Cammi, 
 J. W. Ochterski, R. L. Martin, K. Morokuma, O. Farkas, 
 J. B. Foresman, and D. J. Fox, Gaussian, Inc., Wallingford CT, 2016.
 
 ******************************************
 Gaussian 16:  EM64L-G16RevB.01 20-Dec-2017
                27-Oct-2023 
 ******************************************
 %chk=./chk/10.chk
 ---------------------------
 # B3LYP/6-31G(d,p) OPT FREQ
 ---------------------------
 1/18=20,19=15,26=3,38=1/1,3;
 2/9=110,12=2,17=6,18=5,40=1/2;
 3/5=1,6=6,7=101,11=2,25=1,30=1,71=1,74=-5/1,2,3;
 4//1;
 5/5=2,38=5/2;
 6/7=2,8=2,9=2,10=2,28=1/1;
 7//1,2,3,16;
 1/18=20,19=15,26=3/3(2);
 2/9=110/2;
 99//99;
 2/9=110/2;
 3/5=1,6=6,7=101,11=2,25=1,30=1,71=1,74=-5/1,2,3;
 4/5=5,16=3,69=1/1;
 5/5=2,38=5/2;
 7//1,2,3,16;
 1/18=20,19=15,26=3/3(-5);
 2/9=110/2;
 6/7=2,8=2,9=2,10=2,19=2,28=1/1;
 99/9=1/99;
 ------
 10poly
 ------
 Symbolic Z-matrix:
 Charge =  0 Multiplicity = 1
 C                     6.66334  -1.82639  -1.0603 
 C                     7.53105  -1.57235  -2.04904 
 C                     8.91812  -2.1024   -2.13316 
 C                     9.48541  -2.91444  -1.21633 
 C                     10.87248  -3.45065  -1.29099 
 C                     11.74829  -3.19553  -2.28584 
 C                     13.13364  -3.73361  -2.35712 
 C                     13.70097  -4.54404  -1.44594 
 C                     15.09056  -5.01718  -1.62481 
 C                     15.66736  -5.82557  -0.72538 
 C                     17.05616  -6.29597  -0.90961 
 C                     17.63584  -7.10521  -0.0132 
 C                     19.02465  -7.57393  -0.20163 
 C                     19.60711  -8.3841    0.6921 
 C                     20.99594  -8.85137   0.50007 
 C                     21.58058  -9.66226   1.39172 
 C                     22.96942  -10.1285   1.1972 
 C                     23.5554  -10.93978   2.08754 
 C                     24.94378  -11.40503   1.89132 
 C                     25.53219  -12.21373   2.77558 
 H                     6.90163  -2.45626  -0.2134 
 H                     7.20028  -0.9275   -2.85779 
 H                     9.4735   -1.78922  -3.00666 
 H                     8.92263  -3.22324  -0.34511 
 H                     11.1591  -4.08837  -0.46543 
 H                     11.46565  -2.55849  -3.11277 
 H                     13.71776  -3.43578  -3.224 
 H                     13.16025  -4.86886  -0.56557 
 H                     15.65053  -4.70201  -2.50246 
 H                     15.11002  -6.14271   0.15313 
 H                     17.61242  -5.97789  -1.78855 
 H                     17.08065  -7.42424   0.86602 
 H                     19.57854  -7.25384  -1.08134 
 H                     19.05412  -8.70499   1.57203 
 H                     21.54791  -8.52966  -0.38024 
 H                     21.02925  -9.98454   2.27219 
 H                     23.52026  -9.8058    0.31653 
 H                     23.00562  -11.26326   2.96856 
 H                     25.50276  -11.08827   1.01481 
 H                     25.00705  -12.55234   3.66388 
 H                     26.55301  -12.54401   2.61257 
 H                     5.67144  -1.38732  -1.09616 
 

 GradGradGradGradGradGradGradGradGradGradGradGradGradGradGradGradGradGrad
 Berny optimization.
 Initialization pass.
                           ----------------------------
                           !    Initial Parameters    !
                           ! (Angstroms and Degrees)  !
 --------------------------                            --------------------------
 ! Name  Definition              Value          Derivative Info.                !
 --------------------------------------------------------------------------------
 ! R1    R(1,2)                  1.3398         estimate D2E/DX2                !
 ! R2    R(1,21)                 1.082          estimate D2E/DX2                !
 ! R3    R(1,42)                 1.0853         estimate D2E/DX2                !
 ! R4    R(2,3)                  1.4873         estimate D2E/DX2                !
 ! R5    R(2,22)                 1.086          estimate D2E/DX2                !
 ! R6    R(3,4)                  1.3497         estimate D2E/DX2                !
 ! R7    R(3,23)                 1.0814         estimate D2E/DX2                !
 ! R8    R(4,5)                  1.489          estimate D2E/DX2                !
 ! R9    R(4,24)                 1.0822         estimate D2E/DX2                !
 ! R10   R(5,6)                  1.3498         estimate D2E/DX2                !
 ! R11   R(5,25)                 1.0818         estimate D2E/DX2                !
 ! R12   R(6,7)                  1.4879         estimate D2E/DX2                !
 ! R13   R(6,26)                 1.0814         estimate D2E/DX2                !
 ! R14   R(7,8)                  1.345          estimate D2E/DX2                !
 ! R15   R(7,27)                 1.0869         estimate D2E/DX2                !
 ! R16   R(8,9)                  1.4788         estimate D2E/DX2                !
 ! R17   R(8,28)                 1.083          estimate D2E/DX2                !
 ! R18   R(9,10)                 1.3398         estimate D2E/DX2                !
 ! R19   R(9,29)                 1.0877         estimate D2E/DX2                !
 ! R20   R(10,11)                1.4778         estimate D2E/DX2                !
 ! R21   R(10,30)                1.0877         estimate D2E/DX2                !
 ! R22   R(11,12)                1.3396         estimate D2E/DX2                !
 ! R23   R(11,31)                1.0877         estimate D2E/DX2                !
 ! R24   R(12,13)                1.4778         estimate D2E/DX2                !
 ! R25   R(12,32)                1.0877         estimate D2E/DX2                !
 ! R26   R(13,14)                1.3396         estimate D2E/DX2                !
 ! R27   R(13,33)                1.0877         estimate D2E/DX2                !
 ! R28   R(14,15)                1.4779         estimate D2E/DX2                !
 ! R29   R(14,34)                1.0877         estimate D2E/DX2                !
 ! R30   R(15,16)                1.3395         estimate D2E/DX2                !
 ! R31   R(15,35)                1.0877         estimate D2E/DX2                !
 ! R32   R(16,17)                1.4779         estimate D2E/DX2                !
 ! R33   R(16,36)                1.0877         estimate D2E/DX2                !
 ! R34   R(17,18)                1.3395         estimate D2E/DX2                !
 ! R35   R(17,37)                1.0877         estimate D2E/DX2                !
 ! R36   R(18,19)                1.4773         estimate D2E/DX2                !
 ! R37   R(18,38)                1.0877         estimate D2E/DX2                !
 ! R38   R(19,20)                1.335          estimate D2E/DX2                !
 ! R39   R(19,39)                1.0868         estimate D2E/DX2                !
 ! R40   R(20,40)                1.086          estimate D2E/DX2                !
 ! R41   R(20,41)                1.0852         estimate D2E/DX2                !
 ! A1    A(2,1,21)             123.0493         estimate D2E/DX2                !
 ! A2    A(2,1,42)             119.3938         estimate D2E/DX2                !
 ! A3    A(21,1,42)            117.5569         estimate D2E/DX2                !
 ! A4    A(1,2,3)              125.3227         estimate D2E/DX2                !
 ! A5    A(1,2,22)             117.7047         estimate D2E/DX2                !
 ! A6    A(3,2,22)             116.9727         estimate D2E/DX2                !
 ! A7    A(2,3,4)              124.6085         estimate D2E/DX2                !
 ! A8    A(2,3,23)             114.9251         estimate D2E/DX2                !
 ! A9    A(4,3,23)             120.4664         estimate D2E/DX2                !
 ! A10   A(3,4,5)              125.0385         estimate D2E/DX2                !
 ! A11   A(3,4,24)             119.9972         estimate D2E/DX2                !
 ! A12   A(5,4,24)             114.9643         estimate D2E/DX2                !
 ! A13   A(4,5,6)              124.9835         estimate D2E/DX2                !
 ! A14   A(4,5,25)             114.887          estimate D2E/DX2                !
 ! A15   A(6,5,25)             120.1295         estimate D2E/DX2                !
 ! A16   A(5,6,7)              124.8269         estimate D2E/DX2                !
 ! A17   A(5,6,26)             120.355          estimate D2E/DX2                !
 ! A18   A(7,6,26)             114.8181         estimate D2E/DX2                !
 ! A19   A(6,7,8)              125.3251         estimate D2E/DX2                !
 ! A20   A(6,7,27)             116.0712         estimate D2E/DX2                !
 ! A21   A(8,7,27)             118.6037         estimate D2E/DX2                !
 ! A22   A(7,8,9)              120.4791         estimate D2E/DX2                !
 ! A23   A(7,8,28)             121.3877         estimate D2E/DX2                !
 ! A24   A(9,8,28)             118.1332         estimate D2E/DX2                !
 ! A25   A(8,9,10)             121.0892         estimate D2E/DX2                !
 ! A26   A(8,9,29)             119.2517         estimate D2E/DX2                !
 ! A27   A(10,9,29)            119.6591         estimate D2E/DX2                !
 ! A28   A(9,10,11)            120.8589         estimate D2E/DX2                !
 ! A29   A(9,10,30)            119.8374         estimate D2E/DX2                !
 ! A30   A(11,10,30)           119.3038         estimate D2E/DX2                !
 ! A31   A(10,11,12)           121.0328         estimate D2E/DX2                !
 ! A32   A(10,11,31)           119.2255         estimate D2E/DX2                !
 ! A33   A(12,11,31)           119.7416         estimate D2E/DX2                !
 ! A34   A(11,12,13)           120.8599         estimate D2E/DX2                !
 ! A35   A(11,12,32)           119.8171         estimate D2E/DX2                !
 ! A36   A(13,12,32)           119.323          estimate D2E/DX2                !
 ! A37   A(12,13,14)           121.0228         estimate D2E/DX2                !
 ! A38   A(12,13,33)           119.2312         estimate D2E/DX2                !
 ! A39   A(14,13,33)           119.7459         estimate D2E/DX2                !
 ! A40   A(13,14,15)           120.8748         estimate D2E/DX2                !
 ! A41   A(13,14,34)           119.8092         estimate D2E/DX2                !
 ! A42   A(15,14,34)           119.316          estimate D2E/DX2                !
 ! A43   A(14,15,16)           121.002          estimate D2E/DX2                !
 ! A44   A(14,15,35)           119.2441         estimate D2E/DX2                !
 ! A45   A(16,15,35)           119.7539         estimate D2E/DX2                !
 ! A46   A(15,16,17)           120.8986         estimate D2E/DX2                !
 ! A47   A(15,16,36)           119.7987         estimate D2E/DX2                !
 ! A48   A(17,16,36)           119.3026         estimate D2E/DX2                !
 ! A49   A(16,17,18)           120.9772         estimate D2E/DX2                !
 ! A50   A(16,17,37)           119.2669         estimate D2E/DX2                !
 ! A51   A(18,17,37)           119.7558         estimate D2E/DX2                !
 ! A52   A(17,18,19)           120.9018         estimate D2E/DX2                !
 ! A53   A(17,18,38)           119.8273         estimate D2E/DX2                !
 ! A54   A(19,18,38)           119.2709         estimate D2E/DX2                !
 ! A55   A(18,19,20)           121.1321         estimate D2E/DX2                !
 ! A56   A(18,19,39)           119.9148         estimate D2E/DX2                !
 ! A57   A(20,19,39)           118.9531         estimate D2E/DX2                !
 ! A58   A(19,20,40)           121.1665         estimate D2E/DX2                !
 ! A59   A(19,20,41)           119.965          estimate D2E/DX2                !
 ! A60   A(40,20,41)           118.8685         estimate D2E/DX2                !
 ! D1    D(21,1,2,3)             0.0016         estimate D2E/DX2                !
 ! D2    D(21,1,2,22)         -179.9999         estimate D2E/DX2                !
 ! D3    D(42,1,2,3)          -179.9987         estimate D2E/DX2                !
 ! D4    D(42,1,2,22)           -0.0002         estimate D2E/DX2                !
 ! D5    D(1,2,3,4)              0.008          estimate D2E/DX2                !
 ! D6    D(1,2,3,23)          -179.9986         estimate D2E/DX2                !
 ! D7    D(22,2,3,4)          -179.9905         estimate D2E/DX2                !
 ! D8    D(22,2,3,23)            0.0029         estimate D2E/DX2                !
 ! D9    D(2,3,4,5)            179.9906         estimate D2E/DX2                !
 ! D10   D(2,3,4,24)             0.0009         estimate D2E/DX2                !
 ! D11   D(23,3,4,5)            -0.0024         estimate D2E/DX2                !
 ! D12   D(23,3,4,24)         -179.9921         estimate D2E/DX2                !
 ! D13   D(3,4,5,6)              0.0305         estimate D2E/DX2                !
 ! D14   D(3,4,5,25)          -179.966          estimate D2E/DX2                !
 ! D15   D(24,4,5,6)          -179.9793         estimate D2E/DX2                !
 ! D16   D(24,4,5,25)            0.0242         estimate D2E/DX2                !
 ! D17   D(4,5,6,7)           -179.9823         estimate D2E/DX2                !
 ! D18   D(4,5,6,26)             0.0103         estimate D2E/DX2                !
 ! D19   D(25,5,6,7)             0.014          estimate D2E/DX2                !
 ! D20   D(25,5,6,26)         -179.9934         estimate D2E/DX2                !
 ! D21   D(5,6,7,8)              0.0282         estimate D2E/DX2                !
 ! D22   D(5,6,7,27)          -179.9906         estimate D2E/DX2                !
 ! D23   D(26,6,7,8)          -179.9647         estimate D2E/DX2                !
 ! D24   D(26,6,7,27)            0.0165         estimate D2E/DX2                !
 ! D25   D(6,7,8,9)            179.9717         estimate D2E/DX2                !
 ! D26   D(6,7,8,28)            -0.006          estimate D2E/DX2                !
 ! D27   D(27,7,8,9)            -0.0091         estimate D2E/DX2                !
 ! D28   D(27,7,8,28)         -179.9868         estimate D2E/DX2                !
 ! D29   D(7,8,9,10)          -179.9464         estimate D2E/DX2                !
 ! D30   D(7,8,9,29)             0.0293         estimate D2E/DX2                !
 ! D31   D(28,8,9,10)            0.0321         estimate D2E/DX2                !
 ! D32   D(28,8,9,29)         -179.9922         estimate D2E/DX2                !
 ! D33   D(8,9,10,11)          179.9656         estimate D2E/DX2                !
 ! D34   D(8,9,10,30)           -0.0089         estimate D2E/DX2                !
 ! D35   D(29,9,10,11)          -0.01           estimate D2E/DX2                !
 ! D36   D(29,9,10,30)        -179.9845         estimate D2E/DX2                !
 ! D37   D(9,10,11,12)        -179.9389         estimate D2E/DX2                !
 ! D38   D(9,10,11,31)           0.0354         estimate D2E/DX2                !
 ! D39   D(30,10,11,12)          0.0357         estimate D2E/DX2                !
 ! D40   D(30,10,11,31)       -179.99           estimate D2E/DX2                !
 ! D41   D(10,11,12,13)        179.9652         estimate D2E/DX2                !
 ! D42   D(10,11,12,32)         -0.0099         estimate D2E/DX2                !
 ! D43   D(31,11,12,13)         -0.0089         estimate D2E/DX2                !
 ! D44   D(31,11,12,32)       -179.984          estimate D2E/DX2                !
 ! D45   D(11,12,13,14)       -179.943          estimate D2E/DX2                !
 ! D46   D(11,12,13,33)          0.0343         estimate D2E/DX2                !
 ! D47   D(32,12,13,14)          0.0323         estimate D2E/DX2                !
 ! D48   D(32,12,13,33)       -179.9904         estimate D2E/DX2                !
 ! D49   D(12,13,14,15)        179.9708         estimate D2E/DX2                !
 ! D50   D(12,13,14,34)         -0.0091         estimate D2E/DX2                !
 ! D51   D(33,13,14,15)         -0.0064         estimate D2E/DX2                !
 ! D52   D(33,13,14,34)       -179.9863         estimate D2E/DX2                !
 ! D53   D(13,14,15,16)       -179.9564         estimate D2E/DX2                !
 ! D54   D(13,14,15,35)          0.0273         estimate D2E/DX2                !
 ! D55   D(34,14,15,16)          0.0236         estimate D2E/DX2                !
 ! D56   D(34,14,15,35)       -179.9927         estimate D2E/DX2                !
 ! D57   D(14,15,16,17)        179.9802         estimate D2E/DX2                !
 ! D58   D(14,15,16,36)         -0.0069         estimate D2E/DX2                !
 ! D59   D(35,15,16,17)         -0.0033         estimate D2E/DX2                !
 ! D60   D(35,15,16,36)       -179.9904         estimate D2E/DX2                !
 ! D61   D(15,16,17,18)       -179.9741         estimate D2E/DX2                !
 ! D62   D(15,16,17,37)          0.0169         estimate D2E/DX2                !
 ! D63   D(36,16,17,18)          0.013          estimate D2E/DX2                !
 ! D64   D(36,16,17,37)       -179.9959         estimate D2E/DX2                !
 ! D65   D(16,17,18,19)        179.9904         estimate D2E/DX2                !
 ! D66   D(16,17,18,38)         -0.0039         estimate D2E/DX2                !
 ! D67   D(37,17,18,19)         -0.0006         estimate D2E/DX2                !
 ! D68   D(37,17,18,38)       -179.9949         estimate D2E/DX2                !
 ! D69   D(17,18,19,20)       -179.9904         estimate D2E/DX2                !
 ! D70   D(17,18,19,39)          0.0068         estimate D2E/DX2                !
 ! D71   D(38,18,19,20)          0.0039         estimate D2E/DX2                !
 ! D72   D(38,18,19,39)       -179.9989         estimate D2E/DX2                !
 ! D73   D(18,19,20,40)         -0.0008         estimate D2E/DX2                !
 ! D74   D(18,19,20,41)        179.9979         estimate D2E/DX2                !
 ! D75   D(39,19,20,40)       -179.998          estimate D2E/DX2                !
 ! D76   D(39,19,20,41)          0.0007         estimate D2E/DX2                !
 --------------------------------------------------------------------------------
 Trust Radius=3.00D-01 FncErr=1.00D-07 GrdErr=1.00D-06 EigMax=2.50D+02 EigMin=1.00D-04
 Number of steps in this run=    187 maximum allowed number of steps=    252.
 GradGradGradGradGradGradGradGradGradGradGradGradGradGradGradGradGradGrad

                          Input orientation:                          
 ---------------------------------------------------------------------
 Center     Atomic      Atomic             Coordinates (Angstroms)
 Number     Number       Type             X           Y           Z
 ---------------------------------------------------------------------
      1          6           0        6.663337   -1.826386   -1.060302
      2          6           0        7.531052   -1.572354   -2.049036
      3          6           0        8.918121   -2.102396   -2.133159
      4          6           0        9.485405   -2.914440   -1.216330
      5          6           0       10.872477   -3.450654   -1.290989
      6          6           0       11.748290   -3.195528   -2.285841
      7          6           0       13.133635   -3.733609   -2.357117
      8          6           0       13.700972   -4.544039   -1.445938
      9          6           0       15.090564   -5.017177   -1.624814
     10          6           0       15.667363   -5.825571   -0.725383
     11          6           0       17.056163   -6.295965   -0.909613
     12          6           0       17.635841   -7.105214   -0.013199
     13          6           0       19.024648   -7.573930   -0.201633
     14          6           0       19.607113   -8.384104    0.692100
     15          6           0       20.995936   -8.851373    0.500074
     16          6           0       21.580584   -9.662256    1.391723
     17          6           0       22.969417  -10.128502    1.197199
     18          6           0       23.555401  -10.939780    2.087544
     19          6           0       24.943783  -11.405026    1.891318
     20          6           0       25.532188  -12.213730    2.775582
     21          1           0        6.901627   -2.456260   -0.213398
     22          1           0        7.200280   -0.927495   -2.857794
     23          1           0        9.473502   -1.789219   -3.006661
     24          1           0        8.922632   -3.223241   -0.345114
     25          1           0       11.159104   -4.088372   -0.465433
     26          1           0       11.465655   -2.558491   -3.112773
     27          1           0       13.717755   -3.435783   -3.224004
     28          1           0       13.160250   -4.868861   -0.565568
     29          1           0       15.650534   -4.702011   -2.502462
     30          1           0       15.110018   -6.142709    0.153131
     31          1           0       17.612421   -5.977893   -1.788552
     32          1           0       17.080649   -7.424241    0.866018
     33          1           0       19.578537   -7.253844   -1.081338
     34          1           0       19.054120   -8.704991    1.572026
     35          1           0       21.547907   -8.529658   -0.380238
     36          1           0       21.029253   -9.984536    2.272186
     37          1           0       23.520256   -9.805797    0.316528
     38          1           0       23.005624  -11.263260    2.968560
     39          1           0       25.502757  -11.088274    1.014806
     40          1           0       25.007054  -12.552337    3.663879
     41          1           0       26.553005  -12.544008    2.612573
     42          1           0        5.671442   -1.387316   -1.096158
 ---------------------------------------------------------------------
                    Distance matrix (angstroms):
                    1          2          3          4          5
     1  C    0.000000
     2  C    1.339798   0.000000
     3  C    2.512221   1.487273   0.000000
     4  C    3.028577   2.512785   1.349741   0.000000
     5  C    4.517558   3.907399   2.519238   1.488982   0.000000
     6  C    5.406778   4.525026   3.037780   2.518633   1.349766
     7  C    6.869060   6.012892   4.525657   3.909222   2.515856
     8  C    7.553983   6.874777   5.413830   4.525408   3.036426
     9  C    9.028731   8.318232   6.844956   6.000514   4.511950
    10  C    9.857898   9.275854   7.835569   6.850716   5.380620
    11  C   11.314181  10.692919   9.236386   8.297299   6.817567
    12  C   12.221223  11.698886  10.272345   9.243361   7.793051
    13  C   13.659195  13.097121  11.653771  10.664784   9.200326
    14  C   14.615605  14.133117  12.715993  11.662259  10.225724
    15  C   16.037725  15.517255  14.083900  13.064668  11.612928
    16  C   17.027553  16.573313  15.162924  14.093556  12.666669
    17  C   18.436640  17.946833  16.521155  15.481808  14.039967
    18  C   19.450057  19.016828  17.611464  16.531378  15.111520
    19  C   20.847952  20.381634  18.961993  17.908349  16.474245
    20  C   21.877945  21.460586  20.058965  18.971331  17.556641
    21  H    1.082021   2.132378   2.806591   2.809220   4.232928
    22  H    2.080214   1.085975   2.203739   3.444438   4.722949
    23  H    3.418585   2.176508   1.081450   2.114603   2.767856
    24  H    2.750838   2.750504   2.110312   1.082169   2.179058
    25  H    5.067778   4.690512   3.427450   2.177895   1.081841
    26  H    5.273602   4.193459   2.767236   2.764884   2.113461
    27  H    7.552257   6.567207   5.099446   4.713315   3.439822
    28  H    7.191057   6.689956   5.301541   4.212807   2.787732
    29  H    9.545615   8.713572   7.226325   6.546630   5.085607
    30  H    9.562922   9.120219   7.738917   6.628228   5.223925
    31  H   11.732340  11.005027   9.525182   8.704055   7.215355
    32  H   11.981948  11.573112  10.195291   9.075362   7.680069
    33  H   14.009288  13.355061  11.886472  10.987263   9.502825
    34  H   14.414433  14.027391  12.651527  11.526739  10.136281
    35  H   16.338506  15.737255  14.279143  13.331679  11.857088
    36  H   16.853499  16.481480  15.106777  13.979142  12.591581
    37  H   18.700866  18.139463  16.690288  15.710427  14.245640
    38  H   19.296546  18.935478  17.561513  16.432055  15.046389
    39  H   21.095317  20.565069  19.123437  18.120295  16.664184
    40  H   21.768231  21.415136  20.041474  18.911030  17.526483
    41  H   22.890093  22.448663  21.036596  19.967274  18.542002
    42  H    1.085322   2.097705   3.482475   4.110093   5.598758
                    6          7          8          9         10
     6  C    0.000000
     7  C    1.487882   0.000000
     8  C    2.517318   1.344959   0.000000
     9  C    3.863439   2.452220   1.478790   0.000000
    10  C    4.971045   3.668602   2.455243   1.339841   0.000000
    11  C    6.299225   4.903791   3.822852   2.451610   1.477828
    12  C    7.423867   6.093565   4.908722   3.665466   2.453487
    13  C    8.744125   7.355149   6.250605   4.903004   3.821314
    14  C    9.876768   8.534093   7.362051   6.091264   4.906829
    15  C   11.192358   9.806673   8.692329   7.354565   6.249073
    16  C   12.329520  10.979691   9.815129   8.532093   7.359923
    17  C   13.642265  12.258483  11.138961   9.806412   8.690887
    18  C   14.782010  13.427476  12.267875  10.977809   9.812687
    19  C   16.092406  14.709841  13.587170  12.257802  11.136849
    20  C   17.232001  15.873915  14.718121  13.423166  12.262957
    21  H    5.322752   6.713053   7.218662   8.695349   9.404920
    22  H    5.114245   6.582527   7.571772   8.972309  10.011485
    23  H    2.769827   4.195132   5.281703   6.624243   7.736942
    24  H    3.428051   4.694804   5.078273   6.549750   7.239346
    25  H    2.111444   2.757371   2.762267   4.202763   4.838371
    26  H    1.081442   2.175794   3.423067   4.625919   5.833335
    27  H    2.194690   1.086917   2.095240   2.634923   3.969278
    28  H    2.784424   2.121121   1.083024   2.206833   2.688206
    29  H    4.188547   2.700687   2.223059   1.087733   2.102542
    30  H    5.092708   4.001399   2.664240   2.104350   1.087656
    31  H    6.509753   5.041786   4.180043   2.703618   2.221887
    32  H    7.500019   6.291922   5.006288   3.994826   2.661893
    33  H    8.901322   7.453618   6.482418   5.043803   4.178989
    34  H    9.930381   8.672078   7.421443   6.287252   5.003925
    35  H   11.318868   9.884842   8.865397   7.455453   6.481667
    36  H   12.369418  11.083560   9.855311   8.667715   7.418374
    37  H   13.749443  12.324843  11.278773   9.887336   8.865422
    38  H   14.812988  13.509798  12.296840  11.079748   9.852094
    39  H   16.197997  14.780262  13.717303  12.338541  11.289787
    40  H   17.284209  15.968733  14.767212  13.530916  12.318475
    41  H   18.181533  16.804774  15.673091  14.352567  13.220308
    42  H    6.450818   7.923347   8.634848  10.108176  10.943218
                   11         12         13         14         15
    11  C    0.000000
    12  C    1.339578   0.000000
    13  C    2.451401   1.477832   0.000000
    14  C    3.665126   2.453348   1.339554   0.000000
    15  C    4.902973   3.821356   2.451577   1.477851   0.000000
    16  C    6.090850   4.906452   3.665064   2.453107   1.339546
    17  C    7.354833   6.249189   4.903444   3.821405   2.451870
    18  C    8.531592   7.359226   6.090730   4.905887   3.665019
    19  C    9.806236   8.690315   7.354855   6.248531   4.903284
    20  C   10.974681   9.809513   8.528753   7.356185   6.087772
    21  H   10.878542  11.699411  13.158964  14.049507  15.493743
    22  H   11.390975  12.456198  13.821938  14.904102  16.259867
    23  H    9.066703  10.190407  11.513273  12.643710  13.962009
    24  H    8.712900   9.544627  10.999992  11.910855  13.347468
    25  H    6.312375   7.159188   8.607293   9.547882  10.971858
    26  H    7.076469   8.267482   9.527211  10.709723  11.978284
    27  H    4.968099   6.255029   7.377134   8.631702   9.806594
    28  H    4.163308   5.033617   6.468463   7.449879   8.854037
    29  H    2.655871   3.989143   4.992633   6.278340   7.403091
    30  H    2.222700   2.708111   4.183131   5.053534   6.488549
    31  H    1.087716   2.103160   2.657072   3.990273   4.994284
    32  H    2.103918   1.087675   2.222930   2.708248   4.183312
    33  H    2.703589   2.221954   1.087717   2.103184   2.657439
    34  H    3.994217   2.661529   2.103814   1.087677   2.222872
    35  H    5.044342   4.179476   2.704099   2.222111   1.087714
    36  H    6.286083   5.002871   3.993650   2.660928   2.103699
    37  H    7.457000   6.482917   5.045811   4.180306   2.704959
    38  H    8.666622   7.417197   6.285654   5.002169   3.993679
    39  H    9.900231   8.877496   7.469688   6.494251   5.057678
    40  H   11.102958   9.875567   8.689988   7.440766   6.308396
    41  H   11.901002  10.769911   9.449740   8.320964   6.998515
    42  H   12.399254  13.304661  14.743897  15.695727  17.120170
                   16         17         18         19         20
    16  C    0.000000
    17  C    1.477864   0.000000
    18  C    2.452781   1.339501   0.000000
    19  C    3.820726   2.451415   1.477349   0.000000
    20  C    4.903087   3.661594   2.450313   1.334971   0.000000
    21  H   16.430903  17.861326  18.831162  20.249188  21.242412
    22  H   17.353605  18.702063  19.803843  21.146267  22.252481
    23  H   15.096752  16.412062  17.549460  18.862224  19.999654
    24  H   14.307385  15.728113  16.720668  18.127893  19.142754
    25  H   11.963464  13.369032  14.391931  15.783063  16.825909
    26  H   13.155446  14.429742  15.602925  16.880819  18.048927
    27  H   11.040742  12.244703  13.464835  14.686696  15.894283
    28  H    9.884819  11.269024  12.326971  13.697057  14.770756
    29  H    8.656455   9.833633  11.066383  12.271926  13.488172
    30  H    7.469240   8.873938   9.903451  11.287879  12.343265
    31  H    6.279729   7.405381   8.658144   9.835856  11.065247
    32  H    5.053167   6.488474   7.468170   8.872810   9.900211
    33  H    3.990573   4.995343   6.280397   7.406406   8.655765
    34  H    2.707745   4.182873   5.051888   6.486930   7.464929
    35  H    2.103258   2.658063   3.991073   4.995966   6.277427
    36  H    1.087678   2.222737   2.707030   4.181674   5.049668
    37  H    2.222381   1.087724   2.103247   2.657804   3.986598
    38  H    2.660896   2.103974   1.087697   2.221938   2.706319
    39  H    4.190351   2.715188   2.228231   1.086764   2.089940
    40  H    5.025530   4.013908   2.681878   2.112416   1.086044
    41  H    5.875367   4.547533   3.440179   2.099306   1.085229
    42  H   18.104281  19.516346  20.523682  21.924932  22.948875
                   21         22         23         24         25
    21  H    0.000000
    22  H    3.069063   0.000000
    23  H    3.855102   2.435625   0.000000
    24  H    2.165657   3.814512   3.073062   0.000000
    25  H    4.566555   5.602394   3.819056   2.400986   0.000000
    26  H    5.408067   4.573684   2.138156   3.816909   3.072933
    27  H    7.515506   6.993075   4.557641   5.596998   3.818675
    28  H    6.716773   7.503993   5.388436   4.551272   2.150297
    29  H    9.318079   9.261751   6.847941   7.218420   4.969808
    30  H    9.005661   9.941231   7.791499   6.859686   4.495847
    31  H   11.384381  11.621639   9.234218   9.229521   6.853192
    32  H   11.377982  12.397426  10.228381   9.255727   6.925712
    33  H   13.582128  14.014269  11.648207  11.416484   9.015898
    34  H   13.781055  14.853494  12.672036  11.677845   9.369936
    35  H   15.856466  16.425151  14.075612  13.695141  11.298651
    36  H   16.200089  17.308587  15.118360  14.111543  11.818594
    37  H   18.178982  18.847870  16.511220  16.026804  13.641793
    38  H   18.628657  19.763182  17.566418  16.551527  14.269246
    39  H   20.543179  21.288944  18.962638  18.401323  16.029041
    40  H   21.089584  22.242985  20.040759  19.021375  16.746810
    41  H   22.269384  23.224906  20.951150  20.160721  17.830987
    42  H    1.853446   2.377423   4.274016   3.808533   6.148817
                   26         27         28         29         30
    26  H    0.000000
    27  H    2.419498   0.000000
    28  H    3.833761   3.071125   0.000000
    29  H    4.741347   2.420659   3.159259   0.000000
    30  H    6.065817   4.546524   2.437377   3.069193   0.000000
    31  H    7.157417   4.867368   4.748418   2.446741   3.171643
    32  H    8.428194   6.629112   4.893764   4.560967   2.456404
    33  H    9.591242   7.315557   6.866481   4.894962   4.767200
    34  H   10.831049   8.901867   7.350027   6.649038   4.912687
    35  H   12.032182   9.764519   9.153610   7.343958   6.886830
    36  H   13.251654  11.249545   9.805314   8.923729   7.367996
    37  H   14.477464  12.214805  11.510046   9.794277   9.174804
    38  H   15.682045  13.633846  12.260089  11.272951   9.822794
    39  H   16.936185  14.677002  13.911009  12.256502  11.541670
    40  H   18.143028  16.062464  14.740108  13.681953  12.302845
    41  H   18.976783  16.785977  15.759897  14.370956  13.340444
    42  H    6.245902   8.571295   8.275562  10.608826  10.642424
                   31         32         33         34         35
    31  H    0.000000
    32  H    3.069437   0.000000
    33  H    2.448227   3.171856   0.000000
    34  H    4.561693   2.456289   3.069394   0.000000
    35  H    4.897234   4.767756   2.449012   3.171916   0.000000
    36  H    6.649625   4.911608   4.561510   2.455322   3.069369
    37  H    7.347566   6.887837   4.899351   4.768063   2.450342
    38  H    8.924789   7.366416   6.649964   4.910136   4.562014
    39  H    9.809802   9.185815   7.361594   6.897496   4.912586
    40  H   11.297473   9.846486   8.947620   7.390219   6.671021
    41  H   11.933893  10.908162   9.501264   8.488467   7.079755
    42  H   12.811705  13.056209  15.093829  15.484303  17.423769
                   36         37         38         39         40
    36  H    0.000000
    37  H    3.172009   0.000000
    38  H    2.454815   3.069579   0.000000
    39  H    4.776137   2.462245   3.175444   0.000000
    40  H    4.934908   4.578079   2.480102   3.067049   0.000000
    41  H    6.097426   4.686916   3.788265   2.403131   1.869567
    42  H   17.919829  19.785011  20.360012  22.177597  22.829401
                   41         42
    41  H    0.000000
    42  H   23.963851   0.000000
 Stoichiometry    C20H22
 Framework group  C1[X(C20H22)]
 Deg. of freedom   120
 Full point group                 C1      NOp   1
 Largest Abelian subgroup         C1      NOp   1
 Largest concise Abelian subgroup C1      NOp   1
                         Standard orientation:                         
 ---------------------------------------------------------------------
 Center     Atomic      Atomic             Coordinates (Angstroms)
 Number     Number       Type             X           Y           Z
 ---------------------------------------------------------------------
      1          6           0      -10.516392    1.708044    0.001262
      2          6           0      -10.108430    0.431877    0.006026
      3          6           0       -8.690738   -0.017710    0.004932
      4          6           0       -7.624187    0.809477   -0.000897
      5          6           0       -6.201528    0.370037   -0.001847
      6          6           0       -5.788494   -0.914974    0.002411
      7          6           0       -4.365690   -1.350200    0.001822
      8          6           0       -3.301048   -0.528352   -0.002463
      9          6           0       -1.928534   -1.078831   -0.001963
     10          6           0       -0.859285   -0.271446   -0.005126
     11          6           0        0.510114   -0.827074   -0.003848
     12          6           0        1.581600   -0.023094   -0.005776
     13          6           0        2.949319   -0.582852   -0.003718
     14          6           0        4.023066    0.218066   -0.004494
     15          6           0        5.389352   -0.345229   -0.001784
     16          6           0        6.464867    0.453301   -0.001678
     17          6           0        7.830146   -0.112461    0.001474
     18          6           0        8.906719    0.684567    0.002102
     19          6           0       10.270775    0.117206    0.005466
     20          6           0       11.346891    0.907219    0.006297
     21          1           0       -9.832190    2.546263   -0.003964
     22          1           0      -10.870509   -0.341783    0.011136
     23          1           0       -8.552758   -1.090312    0.009358
     24          1           0       -7.771043    1.881626   -0.005174
     25          1           0       -5.476908    1.173334   -0.006292
     26          1           0       -6.509681   -1.720820    0.006753
     27          1           0       -4.194481   -2.423542    0.005493
     28          1           0       -3.419495    0.548170   -0.005997
     29          1           0       -1.788489   -2.157505    0.001428
     30          1           0       -0.995963    0.807584   -0.008265
     31          1           0        0.645327   -1.906349   -0.000873
     32          1           0        1.447815    1.056318   -0.008487
     33          1           0        3.081381   -1.662519   -0.001166
     34          1           0        3.892200    1.297839   -0.006819
     35          1           0        5.518867   -1.425202    0.000421
     36          1           0        6.336201    1.533340   -0.003723
     37          1           0        7.958145   -1.192626    0.003450
     38          1           0        8.780070    1.764864    0.000212
     39          1           0       10.409437   -0.960675    0.007357
     40          1           0       11.250026    1.988934    0.004512
     41          1           0       12.340201    0.470125    0.008817
     42          1           0      -11.579292    1.927511    0.002626
 ---------------------------------------------------------------------
 Rotational constants (GHZ):           2.7474650           0.0409634           0.0403617
 Standard basis: 6-31G(d,p) (6D, 7F)
 There are   410 symmetry adapted cartesian basis functions of A   symmetry.
 There are   410 symmetry adapted basis functions of A   symmetry.
   410 basis functions,   714 primitive gaussians,   410 cartesian basis functions
    71 alpha electrons       71 beta electrons
       nuclear repulsion energy      1098.1427330865 Hartrees.
 NAtoms=   42 NActive=   42 NUniq=   42 SFac= 1.00D+00 NAtFMM=   60 NAOKFM=F Big=F
 Integral buffers will be    131072 words long.
 Raffenetti 2 integral format.
 Two-electron integral symmetry is turned on.
 One-electron integrals computed using PRISM.
 NBasis=   410 RedAO= T EigKep=  9.35D-04  NBF=   410
 NBsUse=   410 1.00D-06 EigRej= -1.00D+00 NBFU=   410
 ExpMin= 1.61D-01 ExpMax= 3.05D+03 ExpMxC= 4.57D+02 IAcc=3 IRadAn=         5 AccDes= 0.00D+00
 Harris functional with IExCor=  402 and IRadAn=       5 diagonalized for initial guess.
 HarFok:  IExCor=  402 AccDes= 0.00D+00 IRadAn=         5 IDoV= 1 UseB2=F ITyADJ=14
 ICtDFT=  3500011 ScaDFX=  1.000000  1.000000  1.000000  1.000000
 FoFCou: FMM=F IPFlag=           0 FMFlag=      100000 FMFlg1=           0
         NFxFlg=           0 DoJE=T BraDBF=F KetDBF=T FulRan=T
         wScrn=  0.000000 ICntrl=       500 IOpCl=  0 I1Cent=   200000004 NGrid=           0
         NMat0=    1 NMatS0=      1 NMatT0=    0 NMatD0=    1 NMtDS0=    0 NMtDT0=    0
 Petite list used in FoFCou.
 Requested convergence on RMS density matrix=1.00D-08 within 128 cycles.
 Requested convergence on MAX density matrix=1.00D-06.
 Requested convergence on             energy=1.00D-06.
 No special actions if energy rises.
 Integral accuracy reduced to 1.0D-05 until final iterations.
 Initial convergence to 1.0D-05 achieved.  Increase integral accuracy.
 SCF Done:  E(RB3LYP) =  -775.250183085     A.U. after   14 cycles
            NFock= 14  Conv=0.38D-08     -V/T= 2.0101

 **********************************************************************

            Population analysis using the SCF Density.

 **********************************************************************

 Orbital symmetries:
       Occupied  (A) (A) (A) (A) (A) (A) (A) (A) (A) (A) (A) (A)
                 (A) (A) (A) (A) (A) (A) (A) (A) (A) (A) (A) (A)
                 (A) (A) (A) (A) (A) (A) (A) (A) (A) (A) (A) (A)
                 (A) (A) (A) (A) (A) (A) (A) (A) (A) (A) (A) (A)
                 (A) (A) (A) (A) (A) (A) (A) (A) (A) (A) (A) (A)
                 (A) (A) (A) (A) (A) (A) (A) (A) (A) (A) (A)
       Virtual   (A) (A) (A) (A) (A) (A) (A) (A) (A) (A) (A) (A)
                 (A) (A) (A) (A) (A) (A) (A) (A) (A) (A) (A) (A)
                 (A) (A) (A) (A) (A) (A) (A) (A) (A) (A) (A) (A)
                 (A) (A) (A) (A) (A) (A) (A) (A) (A) (A) (A) (A)
                 (A) (A) (A) (A) (A) (A) (A) (A) (A) (A) (A) (A)
                 (A) (A) (A) (A) (A) (A) (A) (A) (A) (A) (A) (A)
                 (A) (A) (A) (A) (A) (A) (A) (A) (A) (A) (A) (A)
                 (A) (A) (A) (A) (A) (A) (A) (A) (A) (A) (A) (A)
                 (A) (A) (A) (A) (A) (A) (A) (A) (A) (A) (A) (A)
                 (A) (A) (A) (A) (A) (A) (A) (A) (A) (A) (A) (A)
                 (A) (A) (A) (A) (A) (A) (A) (A) (A) (A) (A) (A)
                 (A) (A) (A) (A) (A) (A) (A) (A) (A) (A) (A) (A)
                 (A) (A) (A) (A) (A) (A) (A) (A) (A) (A) (A) (A)
                 (A) (A) (A) (A) (A) (A) (A) (A) (A) (A) (A) (A)
                 (A) (A) (A) (A) (A) (A) (A) (A) (A) (A) (A) (A)
                 (A) (A) (A) (A) (A) (A) (A) (A) (A) (A) (A) (A)
                 (A) (A) (A) (A) (A) (A) (A) (A) (A) (A) (A) (A)
                 (A) (A) (A) (A) (A) (A) (A) (A) (A) (A) (A) (A)
                 (A) (A) (A) (A) (A) (A) (A) (A) (A) (A) (A) (A)
                 (A) (A) (A) (A) (A) (A) (A) (A) (A) (A) (A) (A)
                 (A) (A) (A) (A) (A) (A) (A) (A) (A) (A) (A) (A)
                 (A) (A) (A) (A) (A) (A) (A) (A) (A) (A) (A) (A)
                 (A) (A) (A) (A) (A) (A) (A) (A) (A) (A) (A) (A)
                 (A) (A) (A) (A) (A) (A) (A) (A) (A) (A) (A) (A)
                 (A) (A) (A) (A) (A) (A) (A) (A) (A) (A) (A) (A)
                 (A) (A) (A) (A) (A) (A) (A) (A) (A) (A) (A) (A)
                 (A) (A) (A) (A) (A) (A) (A) (A) (A) (A) (A) (A)
                 (A) (A) (A) (A) (A) (A) (A) (A) (A) (A) (A) (A)
                 (A) (A) (A)
 The electronic state is 1-A.
 Alpha  occ. eigenvalues --  -10.19323 -10.19302 -10.19276 -10.19268 -10.19229
 Alpha  occ. eigenvalues --  -10.19212 -10.19182 -10.19178 -10.19167 -10.19161
 Alpha  occ. eigenvalues --  -10.19145 -10.19126 -10.19124 -10.19092 -10.19075
 Alpha  occ. eigenvalues --  -10.19071 -10.19052 -10.18975 -10.18012 -10.17948
 Alpha  occ. eigenvalues --   -0.82872  -0.82279  -0.81474  -0.80382  -0.78978
 Alpha  occ. eigenvalues --   -0.77312  -0.75391  -0.73331  -0.71034  -0.69077
 Alpha  occ. eigenvalues --   -0.64309  -0.61999  -0.59527  -0.57776  -0.56880
 Alpha  occ. eigenvalues --   -0.56143  -0.55081  -0.55014  -0.54261  -0.50791
 Alpha  occ. eigenvalues --   -0.49676  -0.48025  -0.47557  -0.46268  -0.45809
 Alpha  occ. eigenvalues --   -0.44607  -0.43683  -0.42143  -0.41262  -0.40873
 Alpha  occ. eigenvalues --   -0.39244  -0.38851  -0.37865  -0.37595  -0.37039
 Alpha  occ. eigenvalues --   -0.36687  -0.36008  -0.35183  -0.35002  -0.34806
 Alpha  occ. eigenvalues --   -0.34449  -0.34130  -0.33450  -0.33217  -0.32065
 Alpha  occ. eigenvalues --   -0.30277  -0.28156  -0.25696  -0.22972  -0.20085
 Alpha  occ. eigenvalues --   -0.17597
 Alpha virt. eigenvalues --   -0.07522  -0.04910  -0.01532   0.01439   0.04395
 Alpha virt. eigenvalues --    0.07068   0.08141   0.08761   0.08855   0.09606
 Alpha virt. eigenvalues --    0.09879   0.10071   0.11254   0.11576   0.12589
 Alpha virt. eigenvalues --    0.12678   0.13232   0.13325   0.14112   0.14253
 Alpha virt. eigenvalues --    0.14806   0.15207   0.15481   0.16069   0.16747
 Alpha virt. eigenvalues --    0.18390   0.19394   0.19606   0.20028   0.20703
 Alpha virt. eigenvalues --    0.22604   0.25351   0.26151   0.27861   0.28690
 Alpha virt. eigenvalues --    0.29805   0.31516   0.32561   0.32826   0.33286
 Alpha virt. eigenvalues --    0.35081   0.36141   0.36689   0.37565   0.39308
 Alpha virt. eigenvalues --    0.40657   0.41617   0.41982   0.43915   0.44175
 Alpha virt. eigenvalues --    0.45673   0.48214   0.49142   0.51511   0.51918
 Alpha virt. eigenvalues --    0.52641   0.53608   0.53732   0.53928   0.54981
 Alpha virt. eigenvalues --    0.56393   0.56533   0.56712   0.57430   0.57622
 Alpha virt. eigenvalues --    0.58719   0.58772   0.58914   0.59203   0.59932
 Alpha virt. eigenvalues --    0.60381   0.60512   0.61230   0.61355   0.62290
 Alpha virt. eigenvalues --    0.63154   0.63577   0.64334   0.64441   0.65024
 Alpha virt. eigenvalues --    0.65395   0.65526   0.66372   0.66916   0.67878
 Alpha virt. eigenvalues --    0.68450   0.68623   0.69753   0.70089   0.71348
 Alpha virt. eigenvalues --    0.72790   0.75223   0.75865   0.78727   0.79555
 Alpha virt. eigenvalues --    0.80751   0.81424   0.82193   0.83349   0.84039
 Alpha virt. eigenvalues --    0.84438   0.84737   0.85405   0.86116   0.86236
 Alpha virt. eigenvalues --    0.86835   0.87131   0.87553   0.87799   0.88472
 Alpha virt. eigenvalues --    0.89198   0.89424   0.90940   0.91541   0.92238
 Alpha virt. eigenvalues --    0.92902   0.93412   0.94262   0.95209   0.96270
 Alpha virt. eigenvalues --    0.97693   0.99335   1.02900   1.03325   1.04429
 Alpha virt. eigenvalues --    1.05134   1.05669   1.06255   1.06342   1.07610
 Alpha virt. eigenvalues --    1.09469   1.09702   1.10495   1.11043   1.14569
 Alpha virt. eigenvalues --    1.17016   1.17757   1.19024   1.21676   1.22852
 Alpha virt. eigenvalues --    1.24440   1.27717   1.28891   1.29118   1.29682
 Alpha virt. eigenvalues --    1.30042   1.30785   1.31103   1.31261   1.32077
 Alpha virt. eigenvalues --    1.32534   1.32562   1.33055   1.33498   1.34519
 Alpha virt. eigenvalues --    1.36487   1.37770   1.38285   1.38728   1.40764
 Alpha virt. eigenvalues --    1.43183   1.44366   1.45464   1.46349   1.47161
 Alpha virt. eigenvalues --    1.48538   1.48547   1.49207   1.49625   1.50638
 Alpha virt. eigenvalues --    1.51814   1.51923   1.53342   1.61749   1.74214
 Alpha virt. eigenvalues --    1.75771   1.76429   1.76621   1.76807   1.77281
 Alpha virt. eigenvalues --    1.77416   1.78131   1.78655   1.83004   1.85978
 Alpha virt. eigenvalues --    1.86222   1.86335   1.88303   1.88907   1.91754
 Alpha virt. eigenvalues --    1.91826   1.92394   1.92949   1.93632   1.93980
 Alpha virt. eigenvalues --    1.94843   1.95561   1.95761   1.96526   1.98275
 Alpha virt. eigenvalues --    1.99005   2.00581   2.02751   2.03154   2.03746
 Alpha virt. eigenvalues --    2.05916   2.06549   2.07480   2.09389   2.09471
 Alpha virt. eigenvalues --    2.10218   2.11378   2.13599   2.14350   2.15614
 Alpha virt. eigenvalues --    2.16913   2.18000   2.18206   2.20604   2.20653
 Alpha virt. eigenvalues --    2.21898   2.23024   2.23440   2.25483   2.25737
 Alpha virt. eigenvalues --    2.28353   2.29237   2.30988   2.33340   2.34498
 Alpha virt. eigenvalues --    2.35814   2.37482   2.39220   2.40737   2.41552
 Alpha virt. eigenvalues --    2.41615   2.44601   2.45090   2.46183   2.46651
 Alpha virt. eigenvalues --    2.48191   2.48626   2.49265   2.49343   2.50328
 Alpha virt. eigenvalues --    2.50929   2.50936   2.51815   2.52693   2.53330
 Alpha virt. eigenvalues --    2.53435   2.54763   2.55749   2.56370   2.57094
 Alpha virt. eigenvalues --    2.58280   2.58796   2.60199   2.61130   2.61619
 Alpha virt. eigenvalues --    2.62179   2.62651   2.63966   2.65420   2.66093
 Alpha virt. eigenvalues --    2.66714   2.68046   2.68612   2.69312   2.69456
 Alpha virt. eigenvalues --    2.70550   2.70574   2.70997   2.71419   2.73356
 Alpha virt. eigenvalues --    2.74088   2.78788   2.79577   2.83012   2.83765
 Alpha virt. eigenvalues --    2.86566   2.87051   2.88902   2.90410   2.91458
 Alpha virt. eigenvalues --    2.92147   2.92349   2.93879   2.95749   2.96410
 Alpha virt. eigenvalues --    2.97533   2.98662   2.99710   3.00138   3.02386
 Alpha virt. eigenvalues --    3.10764   3.18488   3.26258   3.28006   3.32978
 Alpha virt. eigenvalues --    3.34455   3.35394   3.36517   3.38534   3.38865
 Alpha virt. eigenvalues --    3.41256   3.44627   3.48374   3.49846   3.52842
 Alpha virt. eigenvalues --    3.54535   3.56770   3.60410   3.61515   3.65609
 Alpha virt. eigenvalues --    3.66276   3.69788   3.71022   3.79298   4.11174
 Alpha virt. eigenvalues --    4.13442   4.13721   4.13938   4.14352   4.15230
 Alpha virt. eigenvalues --    4.16485   4.17995   4.20553   4.25568   4.27977
 Alpha virt. eigenvalues --    4.31731   4.37598   4.43482   4.49769   4.56602
 Alpha virt. eigenvalues --    4.62765   4.68384   4.72982   4.75549
          Condensed to atoms (all electrons):
               1          2          3          4          5          6
     1  C    4.951481   0.645565  -0.046231  -0.020369   0.000249  -0.000006
     2  C    0.645565   4.734749   0.424494  -0.027358   0.004171   0.000268
     3  C   -0.046231   0.424494   4.858435   0.614282  -0.034054  -0.018223
     4  C   -0.020369  -0.027358   0.614282   4.851066   0.414950  -0.032087
     5  C    0.000249   0.004171  -0.034054   0.414950   4.864335   0.608866
     6  C   -0.000006   0.000268  -0.018223  -0.032087   0.608866   4.868827
     7  C    0.000000  -0.000002   0.000286   0.004211  -0.031881   0.403276
     8  C   -0.000000   0.000000  -0.000008   0.000241  -0.017498  -0.032166
     9  C    0.000000  -0.000000   0.000000  -0.000004   0.000287   0.004009
    10  C    0.000000  -0.000000  -0.000000   0.000000   0.000013  -0.000232
    11  C    0.000000   0.000000  -0.000000   0.000000  -0.000000   0.000002
    12  C   -0.000000   0.000000   0.000000  -0.000000  -0.000000  -0.000000
    13  C    0.000000   0.000000   0.000000   0.000000  -0.000000   0.000000
    14  C    0.000000   0.000000   0.000000   0.000000   0.000000  -0.000000
    15  C    0.000000   0.000000   0.000000   0.000000  -0.000000   0.000000
    16  C    0.000000   0.000000   0.000000   0.000000   0.000000   0.000000
    17  C    0.000000   0.000000   0.000000   0.000000   0.000000   0.000000
    18  C    0.000000   0.000000   0.000000   0.000000   0.000000   0.000000
    19  C    0.000000   0.000000   0.000000   0.000000   0.000000   0.000000
    20  C    0.000000   0.000000   0.000000   0.000000   0.000000   0.000000
    21  H    0.378246  -0.029680  -0.015059   0.004459  -0.000000   0.000001
    22  H   -0.054979   0.374990  -0.038587   0.005136  -0.000144   0.000005
    23  H    0.006163  -0.043219   0.370138  -0.052015  -0.012633   0.003093
    24  H    0.003615  -0.011986  -0.052006   0.368645  -0.039114   0.005195
    25  H    0.000005  -0.000147   0.005320  -0.039623   0.368791  -0.052504
    26  H    0.000001  -0.000015   0.003058  -0.012408  -0.051333   0.368920
    27  H    0.000000  -0.000000   0.000005  -0.000139   0.005155  -0.038952
    28  H    0.000000  -0.000000   0.000000   0.000006   0.003386  -0.011717
    29  H   -0.000000   0.000000  -0.000000   0.000000  -0.000002   0.000155
    30  H   -0.000000   0.000000   0.000000  -0.000000  -0.000002   0.000000
    31  H    0.000000  -0.000000  -0.000000   0.000000   0.000000  -0.000000
    32  H   -0.000000   0.000000  -0.000000   0.000000  -0.000000   0.000000
    33  H    0.000000   0.000000   0.000000  -0.000000   0.000000   0.000000
    34  H    0.000000   0.000000   0.000000   0.000000   0.000000  -0.000000
    35  H    0.000000   0.000000   0.000000   0.000000  -0.000000   0.000000
    36  H    0.000000   0.000000   0.000000   0.000000   0.000000  -0.000000
    37  H    0.000000   0.000000   0.000000   0.000000   0.000000   0.000000
    38  H    0.000000   0.000000   0.000000   0.000000   0.000000   0.000000
    39  H    0.000000   0.000000   0.000000   0.000000   0.000000   0.000000
    40  H    0.000000   0.000000   0.000000   0.000000   0.000000   0.000000
    41  H    0.000000   0.000000   0.000000   0.000000   0.000000   0.000000
    42  H    0.373171  -0.020558   0.004924   0.000187  -0.000002   0.000000
               7          8          9         10         11         12
     1  C    0.000000  -0.000000   0.000000   0.000000   0.000000  -0.000000
     2  C   -0.000002   0.000000  -0.000000  -0.000000   0.000000   0.000000
     3  C    0.000286  -0.000008   0.000000  -0.000000  -0.000000   0.000000
     4  C    0.004211   0.000241  -0.000004   0.000000   0.000000  -0.000000
     5  C   -0.031881  -0.017498   0.000287   0.000013  -0.000000  -0.000000
     6  C    0.403276  -0.032166   0.004009  -0.000232   0.000002  -0.000000
     7  C    4.888242   0.585160  -0.016867   0.002707  -0.000255   0.000004
     8  C    0.585160   4.854882   0.413621  -0.019200   0.003689  -0.000260
     9  C   -0.016867   0.413621   4.862781   0.561904  -0.017186   0.002566
    10  C    0.002707  -0.019200   0.561904   4.888774   0.397504  -0.017462
    11  C   -0.000255   0.003689  -0.017186   0.397504   4.881194   0.563262
    12  C    0.000004  -0.000260   0.002566  -0.017462   0.563262   4.880865
    13  C   -0.000000   0.000002  -0.000252   0.003661  -0.017363   0.397844
    14  C   -0.000000  -0.000000   0.000004  -0.000256   0.002571  -0.017661
    15  C    0.000000   0.000000  -0.000000   0.000002  -0.000256   0.003675
    16  C    0.000000   0.000000  -0.000000  -0.000000   0.000004  -0.000256
    17  C   -0.000000   0.000000   0.000000   0.000000  -0.000000   0.000002
    18  C    0.000000  -0.000000   0.000000   0.000000  -0.000000  -0.000000
    19  C    0.000000   0.000000  -0.000000   0.000000   0.000000   0.000000
    20  C    0.000000   0.000000   0.000000  -0.000000   0.000000   0.000000
    21  H   -0.000000   0.000000   0.000000  -0.000000   0.000000   0.000000
    22  H   -0.000000  -0.000000   0.000000  -0.000000  -0.000000   0.000000
    23  H   -0.000002  -0.000001   0.000000   0.000000  -0.000000   0.000000
    24  H   -0.000146   0.000006   0.000000  -0.000000  -0.000000   0.000000
    25  H   -0.012454   0.003197   0.000048  -0.000001  -0.000000   0.000000
    26  H   -0.039064   0.005255  -0.000127   0.000002  -0.000000   0.000000
    27  H    0.375009  -0.058202  -0.010438   0.000589  -0.000005  -0.000000
    28  H   -0.046125   0.374605  -0.048166  -0.005734   0.000252  -0.000002
    29  H   -0.005114  -0.048436   0.381095  -0.053059  -0.009304   0.000557
    30  H    0.000554  -0.009459  -0.052311   0.380211  -0.047700  -0.005297
    31  H   -0.000004   0.000245  -0.005282  -0.048034   0.380970  -0.052752
    32  H   -0.000000  -0.000004   0.000534  -0.009250  -0.052736   0.380836
    33  H    0.000000  -0.000000  -0.000004   0.000253  -0.005294  -0.047969
    34  H    0.000000   0.000000  -0.000000  -0.000004   0.000538  -0.009265
    35  H    0.000000  -0.000000   0.000000  -0.000000  -0.000004   0.000252
    36  H    0.000000  -0.000000   0.000000   0.000000  -0.000000  -0.000004
    37  H   -0.000000   0.000000   0.000000  -0.000000   0.000000  -0.000000
    38  H    0.000000  -0.000000   0.000000  -0.000000   0.000000   0.000000
    39  H    0.000000   0.000000  -0.000000   0.000000   0.000000  -0.000000
    40  H    0.000000   0.000000   0.000000  -0.000000   0.000000  -0.000000
    41  H    0.000000   0.000000   0.000000   0.000000   0.000000   0.000000
    42  H   -0.000000   0.000000  -0.000000   0.000000  -0.000000   0.000000
              13         14         15         16         17         18
     1  C    0.000000   0.000000   0.000000   0.000000   0.000000   0.000000
     2  C    0.000000   0.000000   0.000000   0.000000   0.000000   0.000000
     3  C    0.000000   0.000000   0.000000   0.000000   0.000000   0.000000
     4  C    0.000000   0.000000   0.000000   0.000000   0.000000   0.000000
     5  C   -0.000000   0.000000  -0.000000   0.000000   0.000000   0.000000
     6  C    0.000000  -0.000000   0.000000   0.000000   0.000000   0.000000
     7  C   -0.000000  -0.000000   0.000000   0.000000  -0.000000   0.000000
     8  C    0.000002  -0.000000   0.000000   0.000000   0.000000  -0.000000
     9  C   -0.000252   0.000004  -0.000000  -0.000000   0.000000   0.000000
    10  C    0.003661  -0.000256   0.000002  -0.000000   0.000000   0.000000
    11  C   -0.017363   0.002571  -0.000256   0.000004  -0.000000  -0.000000
    12  C    0.397844  -0.017661   0.003675  -0.000256   0.000002  -0.000000
    13  C    4.880252   0.563986  -0.017225   0.002543  -0.000256   0.000004
    14  C    0.563986   4.882326   0.396284  -0.017388   0.003648  -0.000255
    15  C   -0.017225   0.396284   4.880644   0.563486  -0.016494   0.002511
    16  C    0.002543  -0.017388   0.563486   4.887755   0.393036  -0.018451
    17  C   -0.000256   0.003648  -0.016494   0.393036   4.868410   0.577745
    18  C    0.000004  -0.000255   0.002511  -0.018451   0.577745   4.861539
    19  C   -0.000000   0.000002  -0.000268   0.004047  -0.019939   0.421039
    20  C   -0.000000  -0.000000   0.000005  -0.000276   0.002697  -0.031475
    21  H    0.000000   0.000000   0.000000   0.000000   0.000000   0.000000
    22  H    0.000000   0.000000   0.000000   0.000000   0.000000   0.000000
    23  H   -0.000000   0.000000   0.000000   0.000000   0.000000   0.000000
    24  H   -0.000000   0.000000   0.000000   0.000000   0.000000   0.000000
    25  H   -0.000000   0.000000  -0.000000   0.000000   0.000000   0.000000
    26  H   -0.000000   0.000000  -0.000000   0.000000   0.000000   0.000000
    27  H    0.000000   0.000000  -0.000000   0.000000  -0.000000   0.000000
    28  H   -0.000000   0.000000  -0.000000  -0.000000   0.000000  -0.000000
    29  H   -0.000004  -0.000000   0.000000   0.000000  -0.000000   0.000000
    30  H    0.000245  -0.000003  -0.000000   0.000000  -0.000000  -0.000000
    31  H   -0.009321   0.000547  -0.000004  -0.000000   0.000000   0.000000
    32  H   -0.047771  -0.005260   0.000246  -0.000004  -0.000000   0.000000
    33  H    0.380918  -0.052816  -0.009321   0.000545  -0.000004  -0.000000
    34  H   -0.052686   0.380863  -0.047813  -0.005261   0.000246  -0.000004
    35  H   -0.005290  -0.047961   0.380962  -0.052965  -0.009246   0.000535
    36  H    0.000540  -0.009272  -0.052658   0.381091  -0.047966  -0.005221
    37  H   -0.000004   0.000253  -0.005259  -0.048050   0.381362  -0.053597
    38  H   -0.000000  -0.000004   0.000549  -0.009557  -0.051020   0.379514
    39  H    0.000000  -0.000000  -0.000005   0.000269  -0.005758  -0.047484
    40  H    0.000000   0.000000  -0.000000  -0.000000   0.000562  -0.012735
    41  H   -0.000000   0.000000  -0.000000   0.000003  -0.000224   0.004036
    42  H    0.000000   0.000000   0.000000   0.000000   0.000000   0.000000
              19         20         21         22         23         24
     1  C    0.000000   0.000000   0.378246  -0.054979   0.006163   0.003615
     2  C    0.000000   0.000000  -0.029680   0.374990  -0.043219  -0.011986
     3  C    0.000000   0.000000  -0.015059  -0.038587   0.370138  -0.052006
     4  C    0.000000   0.000000   0.004459   0.005136  -0.052015   0.368645
     5  C    0.000000   0.000000  -0.000000  -0.000144  -0.012633  -0.039114
     6  C    0.000000   0.000000   0.000001   0.000005   0.003093   0.005195
     7  C    0.000000   0.000000  -0.000000  -0.000000  -0.000002  -0.000146
     8  C    0.000000   0.000000   0.000000  -0.000000  -0.000001   0.000006
     9  C   -0.000000   0.000000   0.000000   0.000000   0.000000   0.000000
    10  C    0.000000  -0.000000  -0.000000  -0.000000   0.000000  -0.000000
    11  C    0.000000   0.000000   0.000000  -0.000000  -0.000000  -0.000000
    12  C    0.000000   0.000000   0.000000   0.000000   0.000000   0.000000
    13  C   -0.000000  -0.000000   0.000000   0.000000  -0.000000  -0.000000
    14  C    0.000002  -0.000000   0.000000   0.000000   0.000000   0.000000
    15  C   -0.000268   0.000005   0.000000   0.000000   0.000000   0.000000
    16  C    0.004047  -0.000276   0.000000   0.000000   0.000000   0.000000
    17  C   -0.019939   0.002697   0.000000   0.000000   0.000000   0.000000
    18  C    0.421039  -0.031475   0.000000   0.000000   0.000000   0.000000
    19  C    4.739954   0.618700   0.000000   0.000000   0.000000   0.000000
    20  C    0.618700   4.965529   0.000000   0.000000   0.000000   0.000000
    21  H    0.000000   0.000000   0.600262   0.006183   0.000023   0.003566
    22  H    0.000000   0.000000   0.006183   0.637958  -0.006070   0.000082
    23  H    0.000000   0.000000   0.000023  -0.006070   0.644233   0.006409
    24  H    0.000000   0.000000   0.003566   0.000082   0.006409   0.642054
    25  H    0.000000   0.000000   0.000009   0.000002   0.000071  -0.006228
    26  H    0.000000   0.000000   0.000000   0.000010   0.003370   0.000065
    27  H    0.000000   0.000000   0.000000   0.000000   0.000011   0.000002
    28  H    0.000000   0.000000   0.000000   0.000000   0.000000   0.000008
    29  H   -0.000000   0.000000   0.000000  -0.000000   0.000000   0.000000
    30  H    0.000000  -0.000000  -0.000000  -0.000000   0.000000   0.000000
    31  H   -0.000000   0.000000  -0.000000  -0.000000  -0.000000  -0.000000
    32  H   -0.000000  -0.000000   0.000000   0.000000  -0.000000   0.000000
    33  H    0.000000   0.000000   0.000000   0.000000   0.000000  -0.000000
    34  H   -0.000000   0.000000   0.000000   0.000000   0.000000  -0.000000
    35  H   -0.000004   0.000000   0.000000   0.000000   0.000000   0.000000
    36  H    0.000236  -0.000003   0.000000   0.000000   0.000000   0.000000
    37  H   -0.009078   0.000488   0.000000   0.000000   0.000000   0.000000
    38  H   -0.046668  -0.005156   0.000000   0.000000   0.000000   0.000000
    39  H    0.381964  -0.050979   0.000000   0.000000   0.000000   0.000000
    40  H   -0.035915   0.382771   0.000000   0.000000   0.000000   0.000000
    41  H   -0.020431   0.369509   0.000000   0.000000   0.000000   0.000000
    42  H    0.000000   0.000000  -0.044139  -0.009423  -0.000177  -0.000100
              25         26         27         28         29         30
     1  C    0.000005   0.000001   0.000000   0.000000  -0.000000  -0.000000
     2  C   -0.000147  -0.000015  -0.000000  -0.000000   0.000000   0.000000
     3  C    0.005320   0.003058   0.000005   0.000000  -0.000000   0.000000
     4  C   -0.039623  -0.012408  -0.000139   0.000006   0.000000  -0.000000
     5  C    0.368791  -0.051333   0.005155   0.003386  -0.000002  -0.000002
     6  C   -0.052504   0.368920  -0.038952  -0.011717   0.000155   0.000000
     7  C   -0.012454  -0.039064   0.375009  -0.046125  -0.005114   0.000554
     8  C    0.003197   0.005255  -0.058202   0.374605  -0.048436  -0.009459
     9  C    0.000048  -0.000127  -0.010438  -0.048166   0.381095  -0.052311
    10  C   -0.000001   0.000002   0.000589  -0.005734  -0.053059   0.380211
    11  C   -0.000000  -0.000000  -0.000005   0.000252  -0.009304  -0.047700
    12  C    0.000000   0.000000  -0.000000  -0.000002   0.000557  -0.005297
    13  C   -0.000000  -0.000000   0.000000  -0.000000  -0.000004   0.000245
    14  C    0.000000   0.000000   0.000000   0.000000  -0.000000  -0.000003
    15  C   -0.000000  -0.000000  -0.000000  -0.000000   0.000000  -0.000000
    16  C    0.000000   0.000000   0.000000  -0.000000   0.000000   0.000000
    17  C    0.000000   0.000000  -0.000000   0.000000  -0.000000  -0.000000
    18  C    0.000000   0.000000   0.000000  -0.000000   0.000000  -0.000000
    19  C    0.000000   0.000000   0.000000   0.000000  -0.000000   0.000000
    20  C    0.000000   0.000000   0.000000   0.000000   0.000000  -0.000000
    21  H    0.000009   0.000000   0.000000   0.000000   0.000000  -0.000000
    22  H    0.000002   0.000010   0.000000   0.000000  -0.000000  -0.000000
    23  H    0.000071   0.003370   0.000011   0.000000   0.000000   0.000000
    24  H   -0.006228   0.000065   0.000002   0.000008   0.000000   0.000000
    25  H    0.644463   0.006414   0.000063   0.003243   0.000000   0.000000
    26  H    0.006414   0.641022  -0.006106   0.000040  -0.000002   0.000000
    27  H    0.000063  -0.006106   0.641871   0.006215   0.004441   0.000016
    28  H    0.003243   0.000040   0.006215   0.633659   0.004397   0.004282
    29  H    0.000000  -0.000002   0.004441   0.004397   0.634200   0.006073
    30  H    0.000000   0.000000   0.000016   0.004282   0.006073   0.634675
    31  H   -0.000000   0.000000   0.000001   0.000005   0.004064   0.004271
    32  H    0.000000   0.000000  -0.000000   0.000001   0.000014   0.004039
    33  H    0.000000  -0.000000  -0.000000  -0.000000   0.000001   0.000005
    34  H    0.000000   0.000000   0.000000  -0.000000  -0.000000   0.000001
    35  H   -0.000000  -0.000000   0.000000   0.000000  -0.000000  -0.000000
    36  H    0.000000   0.000000   0.000000   0.000000   0.000000  -0.000000
    37  H    0.000000   0.000000   0.000000   0.000000   0.000000   0.000000
    38  H    0.000000   0.000000   0.000000   0.000000   0.000000   0.000000
    39  H    0.000000   0.000000   0.000000   0.000000   0.000000   0.000000
    40  H    0.000000   0.000000   0.000000   0.000000   0.000000   0.000000
    41  H    0.000000   0.000000   0.000000   0.000000   0.000000   0.000000
    42  H   -0.000000  -0.000000  -0.000000   0.000000   0.000000  -0.000000
              31         32         33         34         35         36
     1  C    0.000000  -0.000000   0.000000   0.000000   0.000000   0.000000
     2  C   -0.000000   0.000000   0.000000   0.000000   0.000000   0.000000
     3  C   -0.000000  -0.000000   0.000000   0.000000   0.000000   0.000000
     4  C    0.000000   0.000000  -0.000000   0.000000   0.000000   0.000000
     5  C    0.000000  -0.000000   0.000000   0.000000  -0.000000   0.000000
     6  C   -0.000000   0.000000   0.000000  -0.000000   0.000000  -0.000000
     7  C   -0.000004  -0.000000   0.000000   0.000000   0.000000   0.000000
     8  C    0.000245  -0.000004  -0.000000   0.000000  -0.000000  -0.000000
     9  C   -0.005282   0.000534  -0.000004  -0.000000   0.000000   0.000000
    10  C   -0.048034  -0.009250   0.000253  -0.000004  -0.000000   0.000000
    11  C    0.380970  -0.052736  -0.005294   0.000538  -0.000004  -0.000000
    12  C   -0.052752   0.380836  -0.047969  -0.009265   0.000252  -0.000004
    13  C   -0.009321  -0.047771   0.380918  -0.052686  -0.005290   0.000540
    14  C    0.000547  -0.005260  -0.052816   0.380863  -0.047961  -0.009272
    15  C   -0.000004   0.000246  -0.009321  -0.047813   0.380962  -0.052658
    16  C   -0.000000  -0.000004   0.000545  -0.005261  -0.052965   0.381091
    17  C    0.000000  -0.000000  -0.000004   0.000246  -0.009246  -0.047966
    18  C    0.000000   0.000000  -0.000000  -0.000004   0.000535  -0.005221
    19  C   -0.000000  -0.000000   0.000000  -0.000000  -0.000004   0.000236
    20  C    0.000000  -0.000000   0.000000   0.000000   0.000000  -0.000003
    21  H   -0.000000   0.000000   0.000000   0.000000   0.000000   0.000000
    22  H   -0.000000   0.000000   0.000000   0.000000   0.000000   0.000000
    23  H   -0.000000  -0.000000   0.000000   0.000000   0.000000   0.000000
    24  H   -0.000000   0.000000  -0.000000  -0.000000   0.000000   0.000000
    25  H   -0.000000   0.000000   0.000000   0.000000  -0.000000   0.000000
    26  H    0.000000   0.000000  -0.000000   0.000000  -0.000000   0.000000
    27  H    0.000001  -0.000000  -0.000000   0.000000   0.000000   0.000000
    28  H    0.000005   0.000001  -0.000000  -0.000000   0.000000   0.000000
    29  H    0.004064   0.000014   0.000001  -0.000000  -0.000000   0.000000
    30  H    0.004271   0.004039   0.000005   0.000001  -0.000000  -0.000000
    31  H    0.634569   0.006069   0.004074   0.000014   0.000001  -0.000000
    32  H    0.006069   0.634540   0.004268   0.004033   0.000005   0.000001
    33  H    0.004074   0.004268   0.634841   0.006072   0.004074   0.000014
    34  H    0.000014   0.004033   0.006072   0.634480   0.004268   0.004036
    35  H    0.000001   0.000005   0.004074   0.004268   0.634815   0.006067
    36  H   -0.000000   0.000001   0.000014   0.004036   0.006067   0.634043
    37  H   -0.000000  -0.000000   0.000001   0.000005   0.004078   0.004266
    38  H    0.000000  -0.000000  -0.000000   0.000001   0.000014   0.004043
    39  H    0.000000   0.000000  -0.000000  -0.000000   0.000001   0.000005
    40  H    0.000000   0.000000   0.000000  -0.000000  -0.000000   0.000001
    41  H   -0.000000   0.000000  -0.000000   0.000000  -0.000000   0.000000
    42  H    0.000000   0.000000   0.000000   0.000000   0.000000   0.000000
              37         38         39         40         41         42
     1  C    0.000000   0.000000   0.000000   0.000000   0.000000   0.373171
     2  C    0.000000   0.000000   0.000000   0.000000   0.000000  -0.020558
     3  C    0.000000   0.000000   0.000000   0.000000   0.000000   0.004924
     4  C    0.000000   0.000000   0.000000   0.000000   0.000000   0.000187
     5  C    0.000000   0.000000   0.000000   0.000000   0.000000  -0.000002
     6  C    0.000000   0.000000   0.000000   0.000000   0.000000   0.000000
     7  C   -0.000000   0.000000   0.000000   0.000000   0.000000  -0.000000
     8  C    0.000000  -0.000000   0.000000   0.000000   0.000000   0.000000
     9  C    0.000000   0.000000  -0.000000   0.000000   0.000000  -0.000000
    10  C   -0.000000  -0.000000   0.000000  -0.000000   0.000000   0.000000
    11  C    0.000000   0.000000   0.000000   0.000000   0.000000  -0.000000
    12  C   -0.000000   0.000000  -0.000000  -0.000000   0.000000   0.000000
    13  C   -0.000004  -0.000000   0.000000   0.000000  -0.000000   0.000000
    14  C    0.000253  -0.000004  -0.000000   0.000000   0.000000   0.000000
    15  C   -0.005259   0.000549  -0.000005  -0.000000  -0.000000   0.000000
    16  C   -0.048050  -0.009557   0.000269  -0.000000   0.000003   0.000000
    17  C    0.381362  -0.051020  -0.005758   0.000562  -0.000224   0.000000
    18  C   -0.053597   0.379514  -0.047484  -0.012735   0.004036   0.000000
    19  C   -0.009078  -0.046668   0.381964  -0.035915  -0.020431   0.000000
    20  C    0.000488  -0.005156  -0.050979   0.382771   0.369509   0.000000
    21  H    0.000000   0.000000   0.000000   0.000000   0.000000  -0.044139
    22  H    0.000000   0.000000   0.000000   0.000000   0.000000  -0.009423
    23  H    0.000000   0.000000   0.000000   0.000000   0.000000  -0.000177
    24  H    0.000000   0.000000   0.000000   0.000000   0.000000  -0.000100
    25  H    0.000000   0.000000   0.000000   0.000000   0.000000  -0.000000
    26  H    0.000000   0.000000   0.000000   0.000000   0.000000  -0.000000
    27  H    0.000000   0.000000   0.000000   0.000000   0.000000  -0.000000
    28  H    0.000000   0.000000   0.000000   0.000000   0.000000   0.000000
    29  H    0.000000   0.000000   0.000000   0.000000   0.000000   0.000000
    30  H    0.000000   0.000000   0.000000   0.000000   0.000000  -0.000000
    31  H   -0.000000   0.000000   0.000000   0.000000  -0.000000   0.000000
    32  H   -0.000000  -0.000000   0.000000   0.000000   0.000000   0.000000
    33  H    0.000001  -0.000000  -0.000000   0.000000  -0.000000   0.000000
    34  H    0.000005   0.000001  -0.000000  -0.000000   0.000000   0.000000
    35  H    0.004078   0.000014   0.000001  -0.000000  -0.000000   0.000000
    36  H    0.004266   0.004043   0.000005   0.000001   0.000000   0.000000
    37  H    0.634177   0.006061   0.004195   0.000014  -0.000008   0.000000
    38  H    0.006061   0.631522   0.004336   0.004579   0.000025   0.000000
    39  H    0.004195   0.004336   0.631741   0.005980  -0.008104   0.000000
    40  H    0.000014   0.004579   0.005980   0.601471  -0.042375   0.000000
    41  H   -0.000008   0.000025  -0.008104  -0.042375   0.602030   0.000000
    42  H    0.000000   0.000000   0.000000   0.000000   0.000000   0.598129
 Mulliken charges:
               1
     1  C   -0.236911
     2  C   -0.051271
     3  C   -0.076775
     4  C   -0.079179
     5  C   -0.083540
     6  C   -0.076732
     7  C   -0.107535
     8  C   -0.055669
     9  C   -0.076213
    10  C   -0.082388
    11  C   -0.079885
    12  C   -0.078938
    13  C   -0.079823
    14  C   -0.079607
    15  C   -0.079061
    16  C   -0.080570
    17  C   -0.076803
    18  C   -0.077701
    19  C   -0.033638
    20  C   -0.251809
    21  H    0.096130
    22  H    0.084838
    23  H    0.080606
    24  H    0.079935
    25  H    0.079330
    26  H    0.080899
    27  H    0.080465
    28  H    0.081644
    29  H    0.080924
    30  H    0.080400
    31  H    0.080567
    32  H    0.080439
    33  H    0.080342
    34  H    0.080477
    35  H    0.080399
    36  H    0.080780
    37  H    0.081097
    38  H    0.081761
    39  H    0.083839
    40  H    0.095646
    41  H    0.095539
    42  H    0.097988
 Sum of Mulliken charges =  -0.00000
 Mulliken charges with hydrogens summed into heavy atoms:
               1
     1  C   -0.042793
     2  C    0.033567
     3  C    0.003831
     4  C    0.000756
     5  C   -0.004209
     6  C    0.004167
     7  C   -0.027069
     8  C    0.025975
     9  C    0.004711
    10  C   -0.001987
    11  C    0.000682
    12  C    0.001501
    13  C    0.000519
    14  C    0.000870
    15  C    0.001338
    16  C    0.000210
    17  C    0.004294
    18  C    0.004060
    19  C    0.050200
    20  C   -0.060623
 Electronic spatial extent (au):  <R**2>=          24864.0427
 Charge=             -0.0000 electrons
 Dipole moment (field-independent basis, Debye):
    X=              0.1234    Y=             -0.1710    Z=              0.0021  Tot=              0.2109
 Quadrupole moment (field-independent basis, Debye-Ang):
   XX=           -114.4633   YY=           -105.6623   ZZ=           -130.8466
   XY=              0.0907   XZ=             -0.0086   YZ=             -0.0757
 Traceless Quadrupole moment (field-independent basis, Debye-Ang):
   XX=              2.5275   YY=             11.3285   ZZ=            -13.8559
   XY=              0.0907   XZ=             -0.0086   YZ=             -0.0757
 Octapole moment (field-independent basis, Debye-Ang**2):
  XXX=            -24.3205  YYY=             -1.5959  ZZZ=             -0.0010  XYY=              2.3304
  XXY=            -28.9700  XXZ=              0.5454  XZZ=             -0.3964  YZZ=             -0.4470
  YYZ=             -0.0023  XYZ=              0.1801
 Hexadecapole moment (field-independent basis, Debye-Ang**3):
 XXXX=         -32044.7748 YYYY=           -632.4710 ZZZZ=           -135.5830 XXXY=            -12.5821
 XXXZ=             -1.2131 YYYX=             11.7767 YYYZ=             -0.2508 ZZZX=             -0.0408
 ZZZY=             -0.0745 XXYY=          -5226.1637 XXZZ=          -6302.2636 YYZZ=           -147.3679
 XXYZ=             -3.4202 YYXZ=              0.1214 ZZXY=              1.5717
 N-N= 1.098142733087D+03 E-N=-3.989333093592D+03  KE= 7.674807664609D+02
 Calling FoFJK, ICntrl=      2127 FMM=F ISym2X=0 I1Cent= 0 IOpClX= 0 NMat=1 NMatS=1 NMatT=0.
 ***** Axes restored to original set *****
 -------------------------------------------------------------------
 Center     Atomic                   Forces (Hartrees/Bohr)
 Number     Number              X              Y              Z
 -------------------------------------------------------------------
      1        6          -0.005551807    0.004763889   -0.003885852
      2        6           0.015280351   -0.008646496    0.003567126
      3        6          -0.022560766    0.006961776    0.004014079
      4        6           0.027349721   -0.007286035   -0.006731590
      5        6          -0.027583778    0.012663773   -0.001701937
      6        6           0.028833482   -0.012405227    0.000448135
      7        6          -0.031849883    0.014013429   -0.000984093
      8        6           0.034862981   -0.006255038   -0.013434284
      9        6          -0.037265952    0.011262215    0.007081543
[...]
 530,0.00734173,-0.01476379,0.10875993,0.07578987,-0.23157536,0.0011197
 6,0.00257831,-0.00184518,-0.00124325,-0.00075006,0.00047631,0.00000001
 ,0.00000003,0.00000026,0.00000043,-0.00000038,0.00000052,-0.00000024,0
 .00000014,0.00000026,0.00000019,0.00000016,-0.00000004,0.00000004,0.00
 000008,0.00000053,0.00000076,-0.00000048,0.00000062,-0.00000042,0.0000
 0007,0.00000058,-0.00000003,0.00000038,0.00000037,0.00000020,0.0000003
 5,0.00000131,-0.00000058,0.00000070,0.00000091,-0.00000127,-0.00000448
 ,0.,-0.00000293,0.00000187,0.00000268,0.00000694,0.00000188,0.00001088
 ,-0.00003711,0.00001678,0.00000433,0.00018114,-0.00001020,0.00024538,-
 0.00105479,0.00033318,0.00044512,-0.00048408,0.00545633,0.00084011,-0.
 12068013,-0.08788329,0.24467669,-0.00000980,0.00000377,0.00000029,0.00
 000963,-0.00000873,0.00000735,-0.00000849,0.00000659,-0.00000495,0.000
 01125,0.00000197,-0.00001083,-0.00001122,-0.00000061,0.00000826,0.0000
 0988,-0.00001111,0.00001080,-0.00001254,0.00000990,-0.00000771,0.00001
 524,0.00000179,-0.00001339,-0.00001723,-0.00000043,0.00001149,0.000018
 70,0.00000287,-0.00001734,-0.00002177,-0.00000106,0.00001573,0.0000233
 7,0.00000403,-0.00002492,-0.00003181,-0.00000663,0.00002420,0.00004803
 ,0.00000588,-0.00003107,-0.00002233,0.00001829,-0.00002804,-0.00002565
 ,0.00020746,-0.00044594,0.00117487,-0.00183339,0.00101985,-0.01247470,
 -0.00961920,0.02556634,-0.11852905,-0.03653640,0.10910840,0.01040054,0
 .00647635,-0.01371615,0.00000059,0.00000005,-0.00000032,-0.00000177,0.
 00000193,-0.00000178,0.00000102,-0.00000039,0.00000009,-0.00000237,-0.
 00000002,0.00000178,0.00000124,-0.00000011,-0.00000040,-0.00000254,0.0
 0000228,-0.00000172,0.00000143,-0.00000033,-0.00000009,-0.00000197,-0.
 00000025,0.00000208,-0.00000005,0.00000021,0.00000031,-0.00000245,-0.0
 0000056,0.00000319,-0.00000041,0.00000070,0.00000023,-0.00000251,-0.00
 000091,0.00000398,-0.00000203,0.00000356,-0.00000145,0.00000376,-0.000
 00364,0.00000686,-0.00003393,0.00004044,-0.00003428,0.00028294,-0.0000
 0959,-0.00010206,0.00002827,0.00077448,-0.00109723,-0.00412164,0.00286
 631,0.00066064,0.12272330,-0.00000550,0.00000199,-0.00000015,0.0000049
 9,-0.00000501,0.00000442,-0.00000421,0.00000307,-0.00000244,0.00000514
 ,0.00000180,-0.00000666,-0.00000446,-0.00000060,0.00000338,0.00000266,
 -0.00000593,0.00000716,-0.00000368,0.00000275,-0.00000283,0.00000366,0
 .00000333,-0.00000862,-0.00000338,-0.00000472,0.00000809,0.00000138,0.
 00000600,-0.00001117,-0.00000046,-0.00000783,0.00001156,-0.00000501,0.
 00000854,-0.00001716,0.00000141,-0.00002119,0.00001476,-0.00002024,0.0
 0003691,-0.00002046,-0.00002235,-0.00004943,0.00005997,-0.00004942,-0.
 00006961,-0.00017621,-0.00020073,-0.00054116,-0.00161191,0.00555969,0.
 00538847,-0.00746785,-0.03584507,-0.07400150,0.07502782,-0.00960102,-0
 .00209289,0.01796813,0.00000038,0.00000014,-0.00000012,-0.00000098,0.0
 0000119,-0.00000099,0.00000064,-0.00000012,0.00000013,-0.00000131,0.00
 000010,0.00000108,0.00000081,0.00000013,-0.00000014,-0.00000137,0.0000
 0142,-0.00000087,0.00000094,0.,0.00000018,-0.00000101,0.00000015,0.000
 00132,0.00000024,0.00000043,0.00000061,-0.00000122,0.00000022,0.000002
 06,0.00000026,0.00000084,0.00000105,-0.00000165,0.00000031,0.00000265,
 0.00000172,0.00000190,0.00000253,-0.00000435,0.00000445,0.00000442,0.0
 0001137,-0.00000567,0.00001818,-0.00000395,0.00001870,0.00014290,-0.00
 020542,0.00011666,0.00030220,0.00277235,0.00179503,0.00110678,0.034961
 23,0.06829010,0.00001497,-0.00000634,-0.00000039,-0.00001442,0.0000135
 4,-0.00001203,0.00001216,-0.00000963,0.00000693,-0.00001580,-0.0000045
 2,0.00001755,0.00001431,0.00000080,-0.00001123,-0.00001099,0.00001634,
 -0.00001884,0.00001381,-0.00001189,0.00000904,-0.00001635,-0.00000737,
 0.00002200,0.00001617,0.00000612,-0.00002150,-0.00001499,-0.00001216,0
 .00002878,0.00001478,0.00001196,-0.00002951,-0.00001062,-0.00002320,0.
 00003939,0.00001148,0.00002013,-0.00005079,0.00001028,-0.00003790,0.00
 006857,0.00003628,0.00003284,-0.00009717,-0.00003935,-0.00034770,0.000
 37483,-0.00156430,-0.00052197,0.00022626,0.00154128,0.00266557,-0.0022
 3267,0.10801414,0.07548937,-0.23331267,0.01173106,0.00723489,-0.014073
 29,-0.00000085,0.00000010,0.00000063,0.00000284,-0.00000293,0.00000291
 ,-0.00000154,0.00000083,-0.00000004,0.00000382,0.00000022,-0.00000267,
 -0.00000185,0.00000047,0.00000087,0.00000406,-0.00000331,0.00000282,-0
 .00000210,0.00000103,0.00000029,0.00000327,0.00000081,-0.00000292,0.00
 000026,0.00000063,-0.00000026,0.00000423,0.00000162,-0.00000438,0.0000
 0094,0.00000076,-0.00000021,0.00000515,0.00000216,-0.00000557,0.000001
 45,0.00000130,0.00000120,0.00000799,0.00000394,-0.00000617,0.00001174,
 -0.00000123,0.00000472,-0.00011100,0.00014666,-0.00005072,0.00045374,-
 0.00035198,0.00047513,0.00080937,0.00104405,0.00147076,-0.11903585,-0.
 08820702,0.24638950,0.00000322,-0.00000130,-0.00000043,-0.00000357,0.0
 0000277,-0.00000212,0.00000305,-0.00000281,0.00000225,-0.00000475,0.00
 000010,0.00000287,0.00000516,0.00000022,-0.00000406,-0.00000585,0.0000
 0353,-0.00000204,0.00000617,-0.00000589,0.00000482,-0.00000888,0.00000
 304,0.00000151,0.00000982,-0.00000533,0.00000119,-0.00001462,0.0000038
 6,-0.00000045,0.00001570,-0.00000960,0.00000444,-0.00002037,0.00001699
 ,0.00000247,0.00002781,-0.00002216,0.00001050,-0.00005437,-0.00000678,
 -0.00002282,0.00007334,-0.00004196,0.00004230,-0.00004557,0.00008552,0
 .00010978,0.00011937,-0.00004827,-0.00004951,0.00033146,-0.00151697,-0
 .00273814,0.01077906,0.00542176,-0.01263368,-0.11392640,-0.03584826,0.
 11063357,-0.00000019,0.00000011,0.00000014,0.00000053,-0.00000050,0.00
 000056,-0.00000021,0.00000024,-0.00000008,0.00000080,0.00000014,-0.000
 00056,-0.00000033,0.00000018,0.00000021,0.00000063,-0.00000048,0.00000
 055,-0.00000015,0.00000038,-0.00000012,0.00000071,0.00000035,-0.000000
 62,0.00000024,0.00000036,-0.00000036,0.00000096,0.00000063,-0.00000086
 ,0.00000061,0.00000101,-0.00000026,0.00000114,0.00000100,-0.00000103,-
 0.00000034,-0.00000218,-0.00000235,0.00000024,0.00000263,-0.00000151,0
 .00000539,0.00000157,0.00000460,-0.00003306,0.00001188,0.00000568,-0.0
 0008964,0.00006022,0.00019045,0.00008968,-0.00023202,0.00050234,0.0004
 4045,0.00466284,-0.00034941,0.10995958,-0.00000119,0.00000012,-0.00000
 019,0.00000094,-0.00000112,0.00000093,-0.00000082,0.00000039,-0.000000
 50,0.00000076,0.00000040,-0.00000152,-0.00000060,-0.00000045,0.0000005
 2,-0.00000008,-0.00000146,0.00000152,-0.00000035,-0.00000017,-0.000000
 40,0.00000008,0.00000152,-0.00000152,0.00000020,-0.00000226,0.00000179
 ,-0.00000314,-0.00000191,-0.00000458,0.00000219,-0.00000335,0.00000317
 ,0.00000155,0.00001882,0.00000656,0.00000441,-0.00001225,0.00000218,-0
 .00004199,-0.00005867,-0.00004472,0.00002345,0.00001318,0.00002240,0.0
 0006437,0.00023800,0.00008938,0.00022894,-0.00007777,-0.00013930,-0.00
 355588,-0.00401175,-0.00293608,-0.00976722,-0.00202040,0.01717232,-0.0
 3411077,-0.07317566,0.08604626,0.00000013,0.00000019,0.00000004,-0.000
 00018,0.00000037,-0.00000019,0.00000020,0.00000011,0.00000007,-0.00000
 013,0.00000016,0.00000028,0.00000022,0.00000030,0.00000004,-0.00000025
 ,0.00000050,-0.00000013,0.00000035,0.00000034,0.00000013,0.00000007,0.
 00000035,0.00000037,0.00000015,0.00000041,0.00000009,0.00000031,0.0000
 0067,0.00000059,0.00000068,0.00000184,0.00000074,0.00000089,0.00000114
 ,0.00000071,-0.00000272,-0.00000489,-0.00000473,0.00000359,0.00000200,
 0.00000113,0.00000069,0.00001468,0.00000165,0.00003617,-0.00000991,-0.
 00000276,0.00006733,0.00031623,-0.00000985,0.00073557,0.00014585,-0.00
 025968,0.00481305,0.00510669,0.00607059,0.03715284,0.06840056,-0.00000
 061,-0.00000012,0.00000009,0.00000081,-0.00000030,-0.00000020,-0.00000
 092,0.00000084,-0.00000098,0.00000181,-0.00000107,0.00000025,-0.000002
 75,-0.00000004,0.00000151,0.00000368,-0.00000090,-0.00000157,-0.000003
 94,0.00000329,-0.00000315,0.00000620,-0.00000350,0.00000199,-0.0000075
 7,0.00000549,-0.00000468,0.00001064,-0.00000926,0.00000142,-0.00001422
 ,0.00001104,-0.00000841,0.00002692,-0.00000375,0.00001158,-0.00003156,
 0.00001992,-0.00001948,0.00003290,-0.00006822,-0.00001861,-0.00006123,
 0.00006606,-0.00002647,0.00014326,0.00007526,0.00010687,-0.00048828,0.
 00004576,0.00018432,0.00048905,-0.00429726,-0.00089136,0.01140736,0.00
 703217,-0.01403674,0.10788348,0.08720622,-0.24325197,0.00000010,0.0000
 0005,0.00000012,0.00000005,0.00000003,0.00000009,-0.00000002,0.0000000
 4,0.00000019,-0.00000013,0.00000010,0.00000021,0.00000015,0.00000006,0
 .00000021,0.00000018,0.00000002,0.00000015,-0.00000008,0.00000011,0.00
 000044,-0.00000017,0.00000018,0.00000044,-0.00000004,-0.00000004,0.000
 00063,-0.00000035,0.00000038,0.00000081,0.00000025,0.00000053,0.000001
 60,-0.00000087,0.00000064,0.00000153,-0.00000149,-0.00000509,0.0000000
 3,-0.00000302,0.00000177,0.00000344,0.00000600,0.00000106,0.00001032,-
 0.00003277,0.00001346,0.00000418,0.00017920,-0.00000510,0.00022685,-0.
 00102917,0.00038629,0.00036769,-0.00058715,0.00617087,0.00159687,-0.11
 770578,-0.09866958,0.25648616,-0.00001139,0.00000429,0.00000055,0.0000
 1142,-0.00001018,0.00000845,-0.00000976,0.00000798,-0.00000628,0.00001
 341,0.00000188,-0.00001214,-0.00001335,-0.00000110,0.00001049,0.000012
 54,-0.00001240,0.00001152,-0.00001444,0.00001260,-0.00001069,0.0000184
 7,-0.00000131,-0.00001255,-0.00001987,0.00000340,0.00000802,0.00002576
 ,0.00000175,-0.00001135,-0.00002676,0.00000557,0.00000613,0.00002593,-
 0.00002236,-0.00002695,-0.00004160,0.00001763,0.00000576,0.00008561,0.
 00007710,0.00002679,-0.00012687,0.00002207,0.00000093,-0.00006931,-0.0
 0032233,-0.00041241,-0.00055990,0.00013055,0.00031784,0.00225817,0.004
 16978,-0.00034829,-0.00977313,0.00258106,0.00523239,-0.31016255,0.0855
 3036,0.05087748,0.00000070,0.00000004,-0.00000040,-0.00000200,0.000002
 22,-0.00000209,0.00000112,-0.00000051,0.00000019,-0.00000267,-0.000000
 09,0.00000207,0.00000139,-0.00000006,-0.00000058,-0.00000267,0.0000024
 7,-0.00000197,0.00000138,-0.00000061,0.00000016,-0.00000215,-0.0000003
 8,0.00000235,-0.00000006,0.,0.00000098,-0.00000268,-0.00000080,0.00000
 347,-0.00000086,-0.00000108,0.00000077,-0.00000288,-0.00000090,0.00000
 456,0.00000190,0.00000561,0.00000509,-0.00000260,-0.00000230,0.0000058
 1,-0.00000747,-0.00002030,-0.00001265,0.00001063,-0.00000370,0.0000153
 4,0.00001153,0.00007630,-0.00003116,0.00028055,-0.00021495,-0.00003615
 ,0.00014329,-0.00200406,-0.00155267,-0.00766735,0.00434636,-0.00021991
 ,0.32562034,0.00000837,-0.00000371,-0.00000035,-0.00000821,0.00000748,
 -0.00000663,0.00000690,-0.00000566,0.00000407,-0.00000931,-0.00000235,
 0.00000957,0.00000860,0.00000026,-0.00000668,-0.00000697,0.00000950,-0
 .00000983,0.00000845,-0.00000779,0.00000582,-0.00001159,-0.00000500,0.
 00001022,0.00001104,0.00000189,-0.00001001,-0.00000820,0.00000367,0.00
 002009,0.00001136,0.00000023,-0.00001485,-0.00003062,-0.00005089,-0.00
 000579,0.00002197,0.00001021,-0.00001685,0.00007113,0.00017153,0.00016
 937,0.00006262,-0.00004309,-0.00008938,-0.00036511,-0.00109380,-0.0003
 2203,0.00089266,0.00016093,-0.00049339,0.00310161,0.00563777,0.0074020
 2,0.01917389,-0.00130840,-0.00410729,0.08325636,-0.06432704,-0.0031020
 0,-0.00000047,0.00000017,0.00000037,0.00000157,-0.00000153,0.00000160,
 -0.00000078,0.00000057,-0.00000004,0.00000223,0.00000020,-0.00000149,-
 0.00000102,0.00000046,0.00000053,0.00000221,-0.00000169,0.00000155,-0.
 00000107,0.00000063,-0.00000002,0.00000201,0.00000064,-0.00000165,0.00
 000049,0.00000120,-0.00000001,0.00000267,0.00000110,-0.00000254,-0.000
 00024,-0.00000100,-0.00000185,0.00000382,0.00000210,-0.00000300,0.0000
 0637,0.00001513,0.00000794,0.00000433,0.00000220,-0.00000533,-0.000021
 24,-0.00004716,-0.00002916,0.00000824,0.00002272,-0.00000214,-0.000003
 73,0.00009499,0.00008285,0.00003783,-0.00014990,-0.00023627,-0.0021700
 6,-0.00398590,-0.00321729,-0.00968960,0.00511707,0.00202250,-0.0943799
 2,0.05977236,-0.00000591,0.00000238,-0.00000021,0.00000527,-0.00000527
 ,0.00000471,-0.00000454,0.00000332,-0.00000244,0.00000561,0.00000206,-
 0.00000730,-0.00000491,-0.00000018,0.00000326,0.00000290,-0.00000618,0
 .00000822,-0.00000411,0.00000304,-0.00000264,0.00000372,0.00000336,-0.
 00001124,-0.00000406,-0.00000491,0.00001071,0.00000440,0.00001345,-0.0
 0001132,-0.00000302,-0.00001099,0.00001505,-0.00001389,-0.00001130,-0.
 00004030,-0.00000110,-0.00001396,0.00003165,0.00003625,0.00016538,0.00
 002257,-0.00006325,-0.00006231,0.00006770,-0.00034469,-0.00035060,-0.0
 0066622,-0.00088842,0.00001539,0.00079447,0.00134242,0.00668891,0.0001
 3915,-0.02103067,0.00697004,0.00719177,0.05447674,-0.00462010,-0.06022
 652,0.00000041,0.00000003,-0.00000011,-0.00000107,0.00000117,-0.000001
 00,0.00000063,-0.00000023,0.00000015,-0.00000162,0.00000006,0.00000119
 ,0.00000093,-0.00000010,-0.00000009,-0.00000156,0.00000138,-0.00000092
 ,0.00000089,-0.00000033,0.00000009,-0.00000144,-0.00000005,0.00000149,
 0.00000019,0.00000032,0.00000077,-0.00000203,-0.00000023,0.00000233,-0
 .00000057,-0.00000129,0.00000015,-0.00000291,0.00000015,0.00000351,0.0
 0000390,0.00000845,0.00000687,-0.00000467,-0.00000091,0.00000521,-0.00
 001116,-0.00002979,-0.00001994,-0.00000356,0.00000583,0.00001799,0.000
 09552,0.00002942,0.00003543,-0.00043625,-0.00006752,0.00011489,-0.0012
 8993,-0.00332811,-0.00080498,0.02199615,-0.00734788,-0.00074645,-0.053
 84970,0.00194791,0.05406187,-0.29088630,0.11575229,-0.00852904,-0.0154
 6472,0.01010962,-0.00299648,0.00151357,0.00086599,0.00456182,0.0002089
 8,-0.00033962,-0.00003207,0.00005533,-0.00004187,-0.00005337,-0.000060
 56,0.00000984,0.00012344,0.00003560,-0.00005316,-0.00009983,-0.0000394
 5,0.00000608,0.00000469,0.00003692,0.00001970,-0.00001205,-0.00002188,
 0.00000045,0.00001434,0.00002032,0.00000162,-0.00002392,-0.00001702,-0
 .00000242,0.00001404,0.00001775,0.00000546,-0.00001935,-0.00001423,-0.
 00000270,0.00001361,0.00001510,0.00000449,-0.00001779,-0.00001291,-0.0
 0000274,0.00001272,0.00001393,0.00000405,-0.00001578,-0.00001357,-0.00
 000193,0.00001196,0.00001531,0.00000191,-0.00001334,-0.00001466,0.0000
 0464,0.00000217,-0.00168147,0.00086463,0.00160994,0.00005634,-0.002435
 43,-0.00130995,-0.00090651,0.00035573,0.00003676,0.00009905,-0.0001098
 9,-0.00007222,-0.00003802,0.00002799,-0.00000953,0.00004941,0.00005627
 ,-0.00001366,-0.00001313,0.00000047,0.00000913,-0.00000341,-0.00001369
 ,-0.00000133,-0.00000536,-0.00000141,0.00000625,-0.00000018,0.00000026
 ,0.00000278,-0.00000375,-0.00000110,0.00000488,-0.00000056,-0.00000044
 ,0.00000141,-0.00000307,-0.00000103,0.00000399,-0.00000039,-0.00000021
 ,0.00000101,-0.00000255,-0.00000092,0.00000337,-0.00000027,-0.00000018
 ,0.00000065,-0.00000214,-0.00000082,0.00000288,-0.00000017,-0.00000006
 ,0.00000035,-0.00000154,-0.00000087,0.00000250,0.00000053,-0.00000015,
 0.00000001,-0.00000184,0.00000141,-0.00000091,0.30707148,0.11795289,-0
 .08959347,0.01715746,-0.00644837,0.00593136,0.00132005,0.00180454,0.00
 668881,0.00465177,-0.00020211,-0.00064775,0.00014177,-0.00013620,0.000
 03592,-0.00016301,0.00013974,0.00007573,0.00002017,-0.00009883,-0.0001
 2007,-0.00012348,0.00001175,-0.00003177,0.00001397,0.00000027,0.000053
 22,0.00001936,0.00001041,-0.00000822,0.00000710,-0.00001317,-0.0000021
 4,-0.00000631,0.00000592,-0.00000526,0.00000164,-0.00000582,0.00000345
 ,0.00000111,0.00000412,-0.00000210,0.00000017,-0.00000442,0.00000034,0
 .00000100,0.00000286,-0.00000100,-0.00000088,-0.00000304,0.00000011,0.
 00000173,0.00000240,-0.00000038,-0.00000135,-0.00000272,-0.00000008,0.
 00000173,0.00000218,-0.00000113,-0.00000030,0.01486804,-0.00346799,-0.
 00004716,-0.00243021,-0.00435760,-0.00364406,-0.00025724,0.00006382,0.
 00005672,-0.00016128,0.00001690,-0.00034599,-0.00000911,0.00001476,0.0
 0000528,0.00004776,0.00010411,0.00006008,0.00000694,-0.00000022,-0.000
 00171,-0.00001089,-0.00002165,-0.00001834,0.00000117,0.00000067,-0.000
 00082,0.00000128,0.00000349,0.00000091,0.00000080,0.00000081,-0.000000
 30,0.00000025,0.00000057,-0.00000024,0.00000053,0.00000047,-0.00000037
 ,0.00000026,0.00000053,0.00000001,0.00000043,0.00000036,-0.00000034,0.
 00000013,0.00000024,-0.00000003,0.00000036,0.00000028,-0.00000032,0.00
 000009,0.00000017,0.00000002,0.00000026,0.00000024,-0.00000030,-0.0000
 0004,0.00000016,0.00000008,0.00000034,-0.00000010,0.00000018,-0.125082
 29,0.08526443,-0.01202906,0.01863231,-0.05062600,0.02333168,-0.0097807
 9,0.00395210,0.00306676,0.00528419,-0.00007981,-0.00025076,0.00023317,
 -0.00084510,0.00009493,-0.00022589,0.00017181,-0.00008302,0.00010761,0
 .00003209,-0.00002693,-0.00015396,0.00002283,-0.00000451,0.00001785,-0
 .00004318,0.00001895,0.00000621,0.00004283,-0.00000161,0.00001383,-0.0
 0002016,-0.00000035,-0.00001620,0.00001423,0.00000072,0.00000725,-0.00
 001368,-0.00000140,-0.00000643,0.00001280,0.00000272,0.00000474,-0.000
 00957,-0.00000360,-0.00000494,0.00000934,0.00000380,0.00000286,-0.0000
 0741,-0.00000449,-0.00000300,0.00000766,0.00000506,0.00000154,-0.00000
 603,-0.00000596,-0.00000136,0.00000599,0.00000602,-0.00000193,-0.00000
 137,-0.02065126,0.00933796,0.00176751,-0.00131879,-0.00363953,-0.00100
 476,0.00101306,-0.00035449,-0.00012415,0.00000889,-0.00038049,0.000328
 66,0.00004978,-0.00001981,0.00001230,-0.00000073,0.00005408,0.00007635
 ,-0.00000119,0.00000262,-0.00000173,-0.00000575,-0.00001640,-0.0000079
 1,0.00000214,0.00000090,-0.00000221,0.00000116,0.00000158,0.00000131,0
 .00000185,0.00000097,-0.00000181,0.00000033,0.00000021,-0.00000003,0.0
 0000151,0.00000067,-0.00000160,0.00000028,0.00000032,-0.00000005,0.000
 00123,0.00000055,-0.00000137,0.00000016,0.00000017,-0.00000011,0.00000
 101,0.00000046,-0.00000118,0.00000012,0.00000012,-0.00000004,0.0000007
 1,0.00000045,-0.00000103,-0.00000016,0.00000015,0.00000006,0.00000079,
 -0.00000053,0.00000047,0.00677592,-0.01910701,0.04634194\\-0.00000108,
 0.00000237,-0.00000449,-0.00000257,0.00000641,-0.00000798,-0.00001286,
 0.00000660,-0.00000201,0.00000717,-0.00001141,0.00001435,-0.00001812,0
 .00000376,0.00000604,-0.00000898,0.00000861,-0.00000817,0.00002037,-0.
 00000783,-0.00000061,0.00000732,-0.00000298,0.00000013,0.00000623,-0.0
 0000852,0.00000921,-0.00000560,0.00000626,-0.00000603,0.00000602,-0.00
 000550,0.00000482,-0.00000390,0.00000422,-0.00000397,0.00000102,-0.000
 00094,0.00000090,0.00000313,-0.00000101,-0.00000041,-0.00000412,0.0000
 0283,-0.00000166,0.00000946,-0.00000443,0.00000076,-0.00000739,0.00000
 381,-0.00000106,0.00000905,-0.00000439,0.00000093,-0.00000444,0.000002
 30,-0.00000065,-0.00000940,0.00000968,-0.00000904,0.00000125,-0.000000
 87,-0.00000054,0.00000108,-0.00000065,0.00000115,0.00000376,-0.0000030
 4,0.00000220,-0.00000004,0.00000133,-0.00000151,0.00000227,0.00000143,
 -0.00000373,-0.00000108,-0.00000137,0.00000202,0.00000059,-0.00000052,
 0.00000018,-0.00000138,0.00000237,-0.00000268,0.00000021,0.00000054,-0
 .00000115,-0.00000143,-0.00000012,0.00000101,0.00000149,-0.00000016,-0
 .00000087,-0.00000213,0.00000011,0.00000113,0.00000256,-0.00000080,-0.
 00000055,-0.00000311,0.00000069,0.00000090,0.00000358,-0.00000142,-0.0
 0000023,-0.00000369,0.00000081,0.00000112,0.00000398,-0.00000118,-0.00
 000082,-0.00000382,0.00000112,0.00000075,0.00000273,-0.00000157,0.0000
 0066,0.00000244,-0.00000261,0.00000249,0.,-0.00000153,0.00000242,-0.00
 000057,-0.00000243,0.00000499\\\@


 PENOTUS DIED A HUNDRED YEARS OLD WANTING BUT TWO...
 AND HE USED TO SAY BEFORE HE DIED, HAVING SPENT HIS
 WHOLE LIFE IN VAINLY SEARCHING AFTER THE PHILOSOPHER'S
 STONE, THAT IF HE HAD A MORTAL ENEMY HE DID NOT DARE
 TO ENCOUNTER OPENLY, HE WOULD ADVISE HIM ABOVE ALL
 THINGS TO GIVE HIMSELF UP TO THE STUDY AND PRACTICE
 OF ALCHEMY.  --  NICOLAS LEMERY, M.D.
 "A COURSE OF CHYMISTRY", WALTER KETTILBY, LONDON, 1686
 Job cpu time:       0 days  0 hours 56 minutes 48.8 seconds.
 Elapsed time:       0 days  0 hours 56 minutes 48.8 seconds.
 File lengths (MBytes):  RWF=    727 Int=      0 D2E=      0 Chk=     15 Scr=      1
 Normal termination of Gaussian 16 at Fri Oct 27 20:08:36 2023.
