 Entering Gaussian System, Link 0=g16
 Input=./com/11.com
 Output=./log/11.log
 Initial command:
 /home/shohei/gaussian/g16/l1.exe "/home/shohei/gaussian/scratch/Gau-183.inp" -scrdir="/home/shohei/gaussian/scratch/"
 Entering Link 1 = /home/shohei/gaussian/g16/l1.exe PID=       185.
  
 Copyright (c) 1988-2017, Gaussian, Inc.  All Rights Reserved.
  
 This is part of the Gaussian(R) 16 program.  It is based on
 the Gaussian(R) 09 system (copyright 2009, Gaussian, Inc.),
 the Gaussian(R) 03 system (copyright 2003, Gaussian, Inc.),
 the Gaussian(R) 98 system (copyright 1998, Gaussian, Inc.),
 the Gaussian(R) 94 system (copyright 1995, Gaussian, Inc.),
 the Gaussian 92(TM) system (copyright 1992, Gaussian, Inc.),
 the Gaussian 90(TM) system (copyright 1990, Gaussian, Inc.),
 the Gaussian 88(TM) system (copyright 1988, Gaussian, Inc.),
 the Gaussian 86(TM) system (copyright 1986, Carnegie Mellon
 University), and the Gaussian 82(TM) system (copyright 1983,
 Carnegie Mellon University). Gaussian is a federally registered
 trademark of Gaussian, Inc.
  
 This software contains proprietary and confidential information,
 including trade secrets, belonging to Gaussian, Inc.
  
 This software is provided under written license and may be
 used, copied, transmitted, or stored only in accord with that
 written license.
  
 The following legend is applicable only to US Government
 contracts under FAR:
  
                    RESTRICTED RIGHTS LEGEND
  
 Use, reproduction and disclosure by the US Government is
 subject to restrictions as set forth in subparagraphs (a)
 and (c) of the Commercial Computer Software - Restricted
 Rights clause in FAR 52.227-19.
  
 Gaussian, Inc.
 340 Quinnipiac St., Bldg. 40, Wallingford CT 06492
  
  
 ---------------------------------------------------------------
 Warning -- This program may not be used in any manner that
 competes with the business of Gaussian, Inc. or will provide
 assistance to any competitor of Gaussian, Inc.  The licensee
 of this program is prohibited from giving any competitor of
 Gaussian, Inc. access to this program.  By using this program,
 the user acknowledges that Gaussian, Inc. is engaged in the
 business of creating and licensing software in the field of
 computational chemistry and represents and warrants to the
 licensee that it is not a competitor of Gaussian, Inc. and that
 it will not use this program in any manner prohibited above.
 ---------------------------------------------------------------
  

 Cite this work as:
 Gaussian 16, Revision B.01,
 M. J. Frisch, G. W. Trucks, H. B. Schlegel, G. E. Scuseria, 
 M. A. Robb, J. R. Cheeseman, G. Scalmani, V. Barone, 
 G. A. Petersson, H. Nakatsuji, X. Li, M. Caricato, A. V. Marenich, 
 J. Bloino, B. G. Janesko, R. Gomperts, B. Mennucci, H. P. Hratchian, 
 J. V. Ortiz, A. F. Izmaylov, J. L. Sonnenberg, D. Williams-Young, 
 F. Ding, F. Lipparini, F. Egidi, J. Goings, B. Peng, A. Petrone, 
 T. Henderson, D. Ranasinghe, V. G. Zakrzewski, J. Gao, N. Rega, 
 G. Zheng, W. Liang, M. Hada, M. Ehara, K. Toyota, R. Fukuda, 
 J. Hasegawa, M. Ishida, T. Nakajima, Y. Honda, O. Kitao, H. Nakai, 
 T. Vreven, K. Throssell, J. A. Montgomery, Jr., J. E. Peralta, 
 F. Ogliaro, M. J. Bearpark, J. J. Heyd, E. N. Brothers, K. N. Kudin, 
 V. N. Staroverov, T. A. Keith, R. Kobayashi, J. Normand, 
 K. Raghavachari, A. P. Rendell, J. C. Burant, S. S. Iyengar, 
 J. Tomasi, M. Cossi, J. M. Millam, M. Klene, C. Adamo, R. Cammi, 
 J. W. Ochterski, R. L. Martin, K. Morokuma, O. Farkas, 
 J. B. Foresman, and D. J. Fox, Gaussian, Inc., Wallingford CT, 2016.
 
 ******************************************
 Gaussian 16:  EM64L-G16RevB.01 20-Dec-2017
                 1-Nov-2023 
 ******************************************
 %chk=./chk/11.chk
 ---------------------------
 # B3LYP/6-31G(d,p) OPT FREQ
 ---------------------------
 1/18=20,19=15,26=3,38=1/1,3;
 2/9=110,12=2,17=6,18=5,40=1/2;
 3/5=1,6=6,7=101,11=2,25=1,30=1,71=1,74=-5/1,2,3;
 4//1;
 5/5=2,38=5/2;
 6/7=2,8=2,9=2,10=2,28=1/1;
 7//1,2,3,16;
 1/18=20,19=15,26=3/3(2);
 2/9=110/2;
 99//99;
 2/9=110/2;
 3/5=1,6=6,7=101,11=2,25=1,30=1,71=1,74=-5/1,2,3;
 4/5=5,16=3,69=1/1;
 5/5=2,38=5/2;
 7//1,2,3,16;
 1/18=20,19=15,26=3/3(-5);
 2/9=110/2;
 6/7=2,8=2,9=2,10=2,19=2,28=1/1;
 99/9=1/99;
 ------
 11poly
 ------
 Symbolic Z-matrix:
 Charge =  0 Multiplicity = 1
 C                     4.70283  -0.50868  -1.95243 
 C                     5.26376  -1.30149  -1.02935 
 C                     6.65093  -1.83547  -1.08263 
 C                     7.53035  -1.58543  -2.07539 
 C                     8.92027  -2.11517  -2.14083 
 C                     9.48751  -2.91918  -1.21626 
 C                     10.8768  -3.45127  -1.28403 
 C                     11.75556  -3.19749  -2.27667 
 C                     13.14163  -3.73411  -2.34259 
 C                     13.7065  -4.54465  -1.42998 
 C                     15.09627  -5.01813  -1.60658 
 C                     15.67107  -5.82942  -0.70848 
 C                     17.0595  -6.30068  -0.89336 
 C                     17.63856  -7.11356   0.00015 
 C                     19.02696  -7.58242  -0.19104 
 C                     19.61085  -8.39505   0.6995 
 C                     20.99962  -8.86091   0.50349 
 C                     21.58784  -9.67207   1.39249 
 C                     22.97707  -10.13528   1.1934 
 C                     23.56827  -10.9448   2.08186 
 C                     24.95736  -11.40598   1.88087 
 C                     25.5517  -12.2119   2.76368 
 H                     5.22331  -0.17815  -2.84162 
 H                     4.66108  -1.58076  -0.17024 
 H                     6.9308   -2.46277  -0.24733 
 H                     7.24227  -0.9563   -2.90743 
 H                     9.48054  -1.80795  -3.01332 
 H                     8.92623  -3.22699  -0.34448 
 H                     11.16246  -4.08561  -0.45549 
 H                     11.47509  -2.56353  -3.10659 
 H                     13.72811  -3.43637  -3.20793 
 H                     13.16328  -4.87036  -0.55145 
 H                     15.65794  -4.70155  -2.48265 
 H                     15.11241  -6.14873   0.16839 
 H                     17.61621  -5.98028  -1.77119 
 H                     17.08347  -7.43525   0.87845 
 H                     19.5798  -7.25987  -1.07053 
 H                     19.05953  -8.71837   1.57958 
 H                     21.54904  -8.53718  -0.3777 
 H                     21.03959  -9.99614   2.27421 
 H                     23.52422  -9.81119   0.31093 
 H                     23.02252  -11.26945   2.96493 
 H                     25.51208  -11.08824   1.00201 
 H                     25.03106  -12.55126   3.65432 
 H                     26.57297  -12.53899   2.59712 
 H                     3.67932  -0.1742   -1.81655 
 

 GradGradGradGradGradGradGradGradGradGradGradGradGradGradGradGradGradGrad
 Berny optimization.
 Initialization pass.
                           ----------------------------
                           !    Initial Parameters    !
                           ! (Angstroms and Degrees)  !
 --------------------------                            --------------------------
 ! Name  Definition              Value          Derivative Info.                !
 --------------------------------------------------------------------------------
 ! R1    R(1,2)                  1.3399         estimate D2E/DX2                !
 ! R2    R(1,23)                 1.082          estimate D2E/DX2                !
 ! R3    R(1,46)                 1.0853         estimate D2E/DX2                !
 ! R4    R(2,3)                  1.4874         estimate D2E/DX2                !
 ! R5    R(2,24)                 1.086          estimate D2E/DX2                !
 ! R6    R(3,4)                  1.3496         estimate D2E/DX2                !
 ! R7    R(3,25)                 1.0815         estimate D2E/DX2                !
 ! R8    R(4,5)                  1.4889         estimate D2E/DX2                !
 ! R9    R(4,26)                 1.0822         estimate D2E/DX2                !
 ! R10   R(5,6)                  1.3502         estimate D2E/DX2                !
 ! R11   R(5,27)                 1.0814         estimate D2E/DX2                !
 ! R12   R(6,7)                  1.4892         estimate D2E/DX2                !
 ! R13   R(6,28)                 1.0816         estimate D2E/DX2                !
 ! R14   R(7,8)                  1.3498         estimate D2E/DX2                !
 ! R15   R(7,29)                 1.0819         estimate D2E/DX2                !
 ! R16   R(8,9)                  1.4878         estimate D2E/DX2                !
 ! R17   R(8,30)                 1.0814         estimate D2E/DX2                !
 ! R18   R(9,10)                 1.345          estimate D2E/DX2                !
 ! R19   R(9,31)                 1.0869         estimate D2E/DX2                !
 ! R20   R(10,11)                1.4788         estimate D2E/DX2                !
 ! R21   R(10,32)                1.0831         estimate D2E/DX2                !
 ! R22   R(11,12)                1.3398         estimate D2E/DX2                !
 ! R23   R(11,33)                1.0878         estimate D2E/DX2                !
 ! R24   R(12,13)                1.4778         estimate D2E/DX2                !
 ! R25   R(12,34)                1.0876         estimate D2E/DX2                !
 ! R26   R(13,14)                1.3396         estimate D2E/DX2                !
 ! R27   R(13,35)                1.0877         estimate D2E/DX2                !
 ! R28   R(14,15)                1.4779         estimate D2E/DX2                !
 ! R29   R(14,36)                1.0877         estimate D2E/DX2                !
 ! R30   R(15,16)                1.3395         estimate D2E/DX2                !
 ! R31   R(15,37)                1.0877         estimate D2E/DX2                !
 ! R32   R(16,17)                1.4779         estimate D2E/DX2                !
 ! R33   R(16,38)                1.0877         estimate D2E/DX2                !
 ! R34   R(17,18)                1.3395         estimate D2E/DX2                !
 ! R35   R(17,39)                1.0877         estimate D2E/DX2                !
 ! R36   R(18,19)                1.4779         estimate D2E/DX2                !
 ! R37   R(18,40)                1.0877         estimate D2E/DX2                !
 ! R38   R(19,20)                1.3395         estimate D2E/DX2                !
 ! R39   R(19,41)                1.0877         estimate D2E/DX2                !
 ! R40   R(20,21)                1.4774         estimate D2E/DX2                !
 ! R41   R(20,42)                1.0877         estimate D2E/DX2                !
 ! R42   R(21,22)                1.335          estimate D2E/DX2                !
 ! R43   R(21,43)                1.0868         estimate D2E/DX2                !
 ! R44   R(22,44)                1.086          estimate D2E/DX2                !
 ! R45   R(22,45)                1.0852         estimate D2E/DX2                !
 ! A1    A(2,1,23)             123.0599         estimate D2E/DX2                !
 ! A2    A(2,1,46)             119.3998         estimate D2E/DX2                !
 ! A3    A(23,1,46)            117.5402         estimate D2E/DX2                !
 ! A4    A(1,2,3)              125.3241         estimate D2E/DX2                !
 ! A5    A(1,2,24)             117.7004         estimate D2E/DX2                !
 ! A6    A(3,2,24)             116.9755         estimate D2E/DX2                !
 ! A7    A(2,3,4)              124.5792         estimate D2E/DX2                !
 ! A8    A(2,3,25)             114.9567         estimate D2E/DX2                !
 ! A9    A(4,3,25)             120.4641         estimate D2E/DX2                !
 ! A10   A(3,4,5)              125.0784         estimate D2E/DX2                !
 ! A11   A(3,4,26)             119.988          estimate D2E/DX2                !
 ! A12   A(5,4,26)             114.9336         estimate D2E/DX2                !
 ! A13   A(4,5,6)              125.0274         estimate D2E/DX2                !
 ! A14   A(4,5,27)             114.7095         estimate D2E/DX2                !
 ! A15   A(6,5,27)             120.2631         estimate D2E/DX2                !
 ! A16   A(5,6,7)              124.9956         estimate D2E/DX2                !
 ! A17   A(5,6,28)             120.2249         estimate D2E/DX2                !
 ! A18   A(7,6,28)             114.7793         estimate D2E/DX2                !
 ! A19   A(6,7,8)              125.0038         estimate D2E/DX2                !
 ! A20   A(6,7,29)             114.8948         estimate D2E/DX2                !
 ! A21   A(8,7,29)             120.1014         estimate D2E/DX2                !
 ! A22   A(7,8,9)              124.8402         estimate D2E/DX2                !
 ! A23   A(7,8,30)             120.3825         estimate D2E/DX2                !
 ! A24   A(9,8,30)             114.7772         estimate D2E/DX2                !
 ! A25   A(8,9,10)             125.3512         estimate D2E/DX2                !
 ! A26   A(8,9,31)             116.0501         estimate D2E/DX2                !
 ! A27   A(10,9,31)            118.5986         estimate D2E/DX2                !
 ! A28   A(9,10,11)            120.4403         estimate D2E/DX2                !
 ! A29   A(9,10,32)            121.3988         estimate D2E/DX2                !
 ! A30   A(11,10,32)           118.1607         estimate D2E/DX2                !
 ! A31   A(10,11,12)           121.1322         estimate D2E/DX2                !
 ! A32   A(10,11,33)           119.2268         estimate D2E/DX2                !
 ! A33   A(12,11,33)           119.6409         estimate D2E/DX2                !
 ! A34   A(11,12,13)           120.8165         estimate D2E/DX2                !
 ! A35   A(11,12,34)           119.8553         estimate D2E/DX2                !
 ! A36   A(13,12,34)           119.3281         estimate D2E/DX2                !
 ! A37   A(12,13,14)           121.0765         estimate D2E/DX2                !
 ! A38   A(12,13,35)           119.2008         estimate D2E/DX2                !
 ! A39   A(14,13,35)           119.7227         estimate D2E/DX2                !
 ! A40   A(13,14,15)           120.8196         estimate D2E/DX2                !
 ! A41   A(13,14,36)           119.834          estimate D2E/DX2                !
 ! A42   A(15,14,36)           119.3464         estimate D2E/DX2                !
 ! A43   A(14,15,16)           121.0619         estimate D2E/DX2                !
 ! A44   A(14,15,37)           119.2097         estimate D2E/DX2                !
 ! A45   A(16,15,37)           119.7284         estimate D2E/DX2                !
 ! A46   A(15,16,17)           120.8411         estimate D2E/DX2                !
 ! A47   A(15,16,38)           119.8227         estimate D2E/DX2                !
 ! A48   A(17,16,38)           119.3362         estimate D2E/DX2                !
 ! A49   A(16,17,18)           121.0317         estimate D2E/DX2                !
 ! A50   A(16,17,39)           119.2283         estimate D2E/DX2                !
 ! A51   A(18,17,39)           119.74           estimate D2E/DX2                !
 ! A52   A(17,18,19)           120.8757         estimate D2E/DX2                !
 ! A53   A(17,18,40)           119.8074         estimate D2E/DX2                !
 ! A54   A(19,18,40)           119.3169         estimate D2E/DX2                !
 ! A55   A(18,19,20)           120.9944         estimate D2E/DX2                !
 ! A56   A(18,19,41)           119.2583         estimate D2E/DX2                !
 ! A57   A(20,19,41)           119.7472         estimate D2E/DX2                !
 ! A58   A(19,20,21)           120.8912         estimate D2E/DX2                !
 ! A59   A(19,20,42)           119.8308         estimate D2E/DX2                !
 ! A60   A(21,20,42)           119.278          estimate D2E/DX2                !
 ! A61   A(20,21,22)           121.1375         estimate D2E/DX2                !
 ! A62   A(20,21,43)           119.9126         estimate D2E/DX2                !
 ! A63   A(22,21,43)           118.9499         estimate D2E/DX2                !
 ! A64   A(21,22,44)           121.167          estimate D2E/DX2                !
 ! A65   A(21,22,45)           119.9628         estimate D2E/DX2                !
 ! A66   A(44,22,45)           118.8702         estimate D2E/DX2                !
 ! D1    D(23,1,2,3)            -0.0037         estimate D2E/DX2                !
 ! D2    D(23,1,2,24)         -179.9681         estimate D2E/DX2                !
 ! D3    D(46,1,2,3)           179.9741         estimate D2E/DX2                !
 ! D4    D(46,1,2,24)            0.0097         estimate D2E/DX2                !
 ! D5    D(1,2,3,4)              0.1211         estimate D2E/DX2                !
 ! D6    D(1,2,3,25)          -179.8639         estimate D2E/DX2                !
 ! D7    D(24,2,3,4)          -179.9142         estimate D2E/DX2                !
 ! D8    D(24,2,3,25)            0.1008         estimate D2E/DX2                !
 ! D9    D(2,3,4,5)           -179.9201         estimate D2E/DX2                !
 ! D10   D(2,3,4,26)             0.0388         estimate D2E/DX2                !
 ! D11   D(25,3,4,5)             0.0641         estimate D2E/DX2                !
 ! D12   D(25,3,4,26)         -179.977          estimate D2E/DX2                !
 ! D13   D(3,4,5,6)              0.1101         estimate D2E/DX2                !
 ! D14   D(3,4,5,27)          -179.9864         estimate D2E/DX2                !
 ! D15   D(26,4,5,6)          -179.8506         estimate D2E/DX2                !
 ! D16   D(26,4,5,27)            0.0529         estimate D2E/DX2                !
 ! D17   D(4,5,6,7)            179.8478         estimate D2E/DX2                !
 ! D18   D(4,5,6,28)            -0.031          estimate D2E/DX2                !
 ! D19   D(27,5,6,7)            -0.0508         estimate D2E/DX2                !
 ! D20   D(27,5,6,28)         -179.9296         estimate D2E/DX2                !
 ! D21   D(5,6,7,8)              0.2123         estimate D2E/DX2                !
 ! D22   D(5,6,7,29)          -179.7274         estimate D2E/DX2                !
 ! D23   D(28,6,7,8)          -179.9031         estimate D2E/DX2                !
 ! D24   D(28,6,7,29)            0.1573         estimate D2E/DX2                !
 ! D25   D(6,7,8,9)           -179.8225         estimate D2E/DX2                !
 ! D26   D(6,7,8,30)             0.108          estimate D2E/DX2                !
 ! D27   D(29,7,8,9)             0.1142         estimate D2E/DX2                !
 ! D28   D(29,7,8,30)         -179.9553         estimate D2E/DX2                !
 ! D29   D(7,8,9,10)             0.2066         estimate D2E/DX2                !
 ! D30   D(7,8,9,31)          -179.9229         estimate D2E/DX2                !
 ! D31   D(30,8,9,10)         -179.7273         estimate D2E/DX2                !
 ! D32   D(30,8,9,31)            0.1431         estimate D2E/DX2                !
 ! D33   D(8,9,10,11)          179.8192         estimate D2E/DX2                !
 ! D34   D(8,9,10,32)           -0.0569         estimate D2E/DX2                !
 ! D35   D(31,9,10,11)          -0.0482         estimate D2E/DX2                !
 ! D36   D(31,9,10,32)        -179.9243         estimate D2E/DX2                !
 ! D37   D(9,10,11,12)        -179.7732         estimate D2E/DX2                !
 ! D38   D(9,10,11,33)           0.129          estimate D2E/DX2                !
 ! D39   D(32,10,11,12)          0.1068         estimate D2E/DX2                !
 ! D40   D(32,10,11,33)       -179.991          estimate D2E/DX2                !
 ! D41   D(10,11,12,13)        179.8712         estimate D2E/DX2                !
 ! D42   D(10,11,12,34)         -0.0525         estimate D2E/DX2                !
 ! D43   D(33,11,12,13)         -0.0306         estimate D2E/DX2                !
 ! D44   D(33,11,12,34)       -179.9543         estimate D2E/DX2                !
 ! D45   D(11,12,13,14)       -179.8929         estimate D2E/DX2                !
 ! D46   D(11,12,13,35)          0.0594         estimate D2E/DX2                !
 ! D47   D(34,12,13,14)          0.0312         estimate D2E/DX2                !
 ! D48   D(34,12,13,35)        179.9835         estimate D2E/DX2                !
 ! D49   D(12,13,14,15)        179.9423         estimate D2E/DX2                !
 ! D50   D(12,13,14,36)         -0.0336         estimate D2E/DX2                !
 ! D51   D(35,13,14,15)         -0.0097         estimate D2E/DX2                !
 ! D52   D(35,13,14,36)       -179.9856         estimate D2E/DX2                !
 ! D53   D(13,14,15,16)        179.9835         estimate D2E/DX2                !
 ! D54   D(13,14,15,37)         -0.0171         estimate D2E/DX2                !
 ! D55   D(36,14,15,16)         -0.0405         estimate D2E/DX2                !
 ! D56   D(36,14,15,37)        179.9588         estimate D2E/DX2                !
 ! D57   D(14,15,16,17)       -179.9968         estimate D2E/DX2                !
 ! D58   D(14,15,16,38)         -0.0125         estimate D2E/DX2                !
 ! D59   D(37,15,16,17)          0.0038         estimate D2E/DX2                !
 ! D60   D(37,15,16,38)        179.9881         estimate D2E/DX2                !
 ! D61   D(15,16,17,18)        179.9066         estimate D2E/DX2                !
 ! D62   D(15,16,17,39)         -0.0678         estimate D2E/DX2                !
 ! D63   D(38,16,17,18)         -0.0778         estimate D2E/DX2                !
 ! D64   D(38,16,17,39)        179.9478         estimate D2E/DX2                !
 ! D65   D(16,17,18,19)       -179.9675         estimate D2E/DX2                !
 ! D66   D(16,17,18,40)          0.0022         estimate D2E/DX2                !
 ! D67   D(39,17,18,19)          0.0067         estimate D2E/DX2                !
 ! D68   D(39,17,18,40)        179.9764         estimate D2E/DX2                !
 ! D69   D(17,18,19,20)        179.8991         estimate D2E/DX2                !
 ! D70   D(17,18,19,41)         -0.0749         estimate D2E/DX2                !
 ! D71   D(40,18,19,20)         -0.0707         estimate D2E/DX2                !
 ! D72   D(40,18,19,41)        179.9553         estimate D2E/DX2                !
 ! D73   D(18,19,20,21)       -179.9719         estimate D2E/DX2                !
 ! D74   D(18,19,20,42)          0.0063         estimate D2E/DX2                !
 ! D75   D(41,19,20,21)          0.0019         estimate D2E/DX2                !
 ! D76   D(41,19,20,42)        179.9802         estimate D2E/DX2                !
 ! D77   D(19,20,21,22)        179.945          estimate D2E/DX2                !
 ! D78   D(19,20,21,43)         -0.0441         estimate D2E/DX2                !
 ! D79   D(42,20,21,22)         -0.0334         estimate D2E/DX2                !
 ! D80   D(42,20,21,43)        179.9775         estimate D2E/DX2                !
 ! D81   D(20,21,22,44)          0.0011         estimate D2E/DX2                !
 ! D82   D(20,21,22,45)       -179.9916         estimate D2E/DX2                !
 ! D83   D(43,21,22,44)        179.9903         estimate D2E/DX2                !
 ! D84   D(43,21,22,45)         -0.0024         estimate D2E/DX2                !
 --------------------------------------------------------------------------------
 Trust Radius=3.00D-01 FncErr=1.00D-07 GrdErr=1.00D-06 EigMax=2.50D+02 EigMin=1.00D-04
 Number of steps in this run=    205 maximum allowed number of steps=    276.
 GradGradGradGradGradGradGradGradGradGradGradGradGradGradGradGradGradGrad

                          Input orientation:                          
 ---------------------------------------------------------------------
 Center     Atomic      Atomic             Coordinates (Angstroms)
 Number     Number       Type             X           Y           Z
 ---------------------------------------------------------------------
      1          6           0        4.702829   -0.508681   -1.952435
      2          6           0        5.263762   -1.301490   -1.029352
      3          6           0        6.650935   -1.835472   -1.082625
      4          6           0        7.530350   -1.585426   -2.075391
      5          6           0        8.920265   -2.115175   -2.140828
      6          6           0        9.487506   -2.919182   -1.216258
      7          6           0       10.876802   -3.451267   -1.284033
      8          6           0       11.755562   -3.197486   -2.276672
      9          6           0       13.141631   -3.734112   -2.342589
     10          6           0       13.706504   -4.544645   -1.429984
     11          6           0       15.096266   -5.018132   -1.606577
     12          6           0       15.671070   -5.829419   -0.708483
     13          6           0       17.059503   -6.300679   -0.893361
     14          6           0       17.638558   -7.113563    0.000146
     15          6           0       19.026964   -7.582416   -0.191038
     16          6           0       19.610847   -8.395053    0.699499
     17          6           0       20.999617   -8.860911    0.503485
     18          6           0       21.587841   -9.672068    1.392493
     19          6           0       22.977075  -10.135276    1.193401
     20          6           0       23.568272  -10.944804    2.081855
     21          6           0       24.957357  -11.405978    1.880869
     22          6           0       25.551696  -12.211905    2.763680
     23          1           0        5.223311   -0.178146   -2.841621
     24          1           0        4.661080   -1.580756   -0.170240
     25          1           0        6.930797   -2.462771   -0.247329
     26          1           0        7.242272   -0.956301   -2.907431
     27          1           0        9.480538   -1.807947   -3.013317
     28          1           0        8.926228   -3.226987   -0.344481
     29          1           0       11.162460   -4.085608   -0.455495
     30          1           0       11.475092   -2.563529   -3.106589
     31          1           0       13.728111   -3.436371   -3.207928
     32          1           0       13.163280   -4.870359   -0.551448
     33          1           0       15.657941   -4.701550   -2.482649
     34          1           0       15.112405   -6.148728    0.168394
     35          1           0       17.616211   -5.980280   -1.771192
     36          1           0       17.083474   -7.435252    0.878450
     37          1           0       19.579797   -7.259875   -1.070529
     38          1           0       19.059531   -8.718368    1.579582
     39          1           0       21.549044   -8.537185   -0.377696
     40          1           0       21.039588   -9.996144    2.274211
     41          1           0       23.524224   -9.811186    0.310927
     42          1           0       23.022518  -11.269455    2.964933
     43          1           0       25.512081  -11.088237    1.002007
     44          1           0       25.031056  -12.551257    3.654324
     45          1           0       26.572974  -12.538991    2.597125
     46          1           0        3.679323   -0.174200   -1.816549
 ---------------------------------------------------------------------
                    Distance matrix (angstroms):
                    1          2          3          4          5
     1  C    0.000000
     2  C    1.339878   0.000000
     3  C    2.512381   1.487354   0.000000
     4  C    3.028097   2.512417   1.349621   0.000000
     5  C    4.516977   3.907362   2.519501   1.488886   0.000000
     6  C    5.407921   4.526796   3.039478   2.519420   1.350193
     7  C    6.871937   6.016030   4.528721   3.912333   2.519380
     8  C    7.554856   6.877069   5.416461   4.526773   3.037887
     9  C    9.042621   8.348836   6.879061   6.014542   4.525659
    10  C    9.880695   9.053091   7.565801   6.878838   5.414398
    11  C   11.334827  10.527334   9.040325   8.321439   6.845113
    12  C   12.253978  11.354169   9.871901   9.281769   7.837129
    13  C   13.687814  12.812099  11.327497  10.697456   9.236981
    14  C   14.655037  13.710421  12.237586  11.706580  10.275032
    15  C   16.072371  15.151850  13.674371  13.102932  11.654947
    16  C   17.072687  16.098026  14.634323  14.142470  12.719783
    17  C   18.476379  17.524599  16.054819  15.524318  14.085741
    18  C   19.500252  18.504255  17.048449  16.584120  15.167678
    19  C   20.892958  19.918280  18.455620  17.955118  16.523711
    20  C   21.933835  20.921955  19.472806  19.028810  17.616967
    21  C   23.317187  22.325048  20.868684  20.391072  18.965268
    22  C   24.369703  23.345760  21.902128  21.473416  20.064961
    23  H    1.082038   2.132570   2.806939   2.808910   4.232099
    24  H    2.080218   1.085950   2.203826   3.444173   4.723291
    25  H    3.419020   2.176957   1.081456   2.114477   2.768420
    26  H    2.749755   2.749698   2.110103   1.082163   2.178607
    27  H    5.063602   4.687624   3.425636   2.175421   1.081449
    28  H    5.273690   4.194073   2.767333   2.763919   2.112588
    29  H    7.534061   6.547921   5.080381   4.697574   3.427885
    30  H    7.170636   6.669954   5.281950   4.192976   2.767825
    31  H    9.570964   8.997173   7.560834   6.566649   5.098985
    32  H    9.621135   8.681452   7.204397   6.696499   5.302862
    33  H   11.742051  11.032291   9.555136   8.714002   7.225127
    34  H   12.027773  11.042015   9.579442   9.129395   7.742393
    35  H   14.025929  13.229679  11.742693  11.005992   9.523400
    36  H   14.466225  13.452447  12.001718  11.584810  10.200845
    37  H   16.360946  15.506544  14.020691  13.356582  11.884406
    38  H   16.911209  15.878912  14.437274  14.041357  12.658923
    39  H   18.727831  17.832284  16.351255  15.739533  14.277146
    40  H   19.358878  18.313580  16.878929  16.497234  15.115562
    41  H   21.116447  20.190487  18.715285  18.142813  16.688778
    42  H   21.807929  20.753025  19.323858  18.952376  17.571089
    43  H   23.530421  22.580994  21.111660  20.569795  19.122804
    44  H   24.283661  23.221542  21.796688  21.432541  20.051264
    45  H   25.371837  24.362169  22.912738  22.459620  21.040967
    46  H    1.085314   2.097834   3.482663   4.109618   5.598215
                    6          7          8          9         10
     6  C    0.000000
     7  C    1.489245   0.000000
     8  C    2.519128   1.349799   0.000000
     9  C    3.909649   2.515948   1.487783   0.000000
    10  C    4.526340   3.037103   2.517517   1.344952   0.000000
    11  C    6.001343   4.512535   3.863170   2.451738   1.478787
    12  C    6.853012   5.382553   4.971669   3.668608   2.455754
    13  C    8.299031   6.818912   6.298821   4.902780   3.822855
    14  C    9.247276   7.796337   7.424904   6.093558   4.909751
    15  C   10.667619   9.202510   8.743614   7.353624   6.250627
    16  C   11.667790  10.230296   9.878148   8.534017   7.363532
    17  C   13.068678  11.615974  11.191792   9.804701   8.692408
    18  C   14.100537  12.672352  12.331127  10.979464   9.816940
    19  C   15.486992  14.043869  13.641726  12.256186  11.139156
    20  C   16.539532  15.118059  14.783701  13.427012  12.269862
    21  C   17.914636  16.478958  16.091982  14.707363  13.587543
    22  C   18.980326  17.563749  17.233636  15.873144  14.720131
    23  H    5.323387   6.715755   7.218441   8.694465   9.644875
    24  H    5.116632   6.585935   7.575126   9.015308   9.601629
    25  H    2.771985   4.197956   5.285490   6.676892   7.186312
    26  H    3.428418   4.697881   5.078440   6.545053   7.539586
    27  H    2.112892   2.764141   2.765718   4.190893   5.277807
    28  H    1.081560   2.176648   3.426275   4.692465   5.075980
    29  H    2.178252   1.081880   2.111212   2.757135   2.762699
    30  H    2.765925   2.113703   1.081354   2.175157   3.422722
    31  H    4.713487   3.439703   2.194368   1.086931   2.095190
    32  H    4.214306   2.788994   2.785062   2.121253   1.083055
    33  H    6.546361   5.085192   4.187266   2.699513   2.222797
    34  H    6.632248   5.227444   5.094759   4.002419   2.665418
    35  H    8.703684   7.214767   6.507431   5.039210   4.178909
    36  H    9.081928   7.685782   7.503339   6.293780   5.008832
    37  H   10.987137   9.502273   8.898114   7.449774   6.480528
    38  H   11.535637  10.143949   9.934727   8.674548   7.425116
    39  H   13.332136  11.856845  11.315069   9.880026   8.863020
    40  H   13.989901  12.600743  12.374385  11.086281   9.859717
    41  H   15.711825  14.246043  13.745476  12.319506  11.276296
    42  H   16.444025  15.056434  14.818077  13.512332  12.301483
    43  H   18.122946  16.665554  16.194305  14.774895  13.715131
    44  H   18.923567  17.536821  17.288970  15.970707  14.771645
    45  H   19.974880  18.547774  18.181675  16.802609  15.673967
    46  H    6.452152   7.926313   8.635833  10.123485  10.945071
                   11         12         13         14         15
    11  C    0.000000
    12  C    1.339836   0.000000
    13  C    2.451102   1.477840   0.000000
    14  C    3.665466   2.454015   1.339567   0.000000
    15  C    4.902010   3.821358   2.450921   1.477852   0.000000
    16  C    6.091225   4.907824   3.665101   2.453821   1.339534
    17  C    7.353154   6.249178   4.902088   3.821426   2.451177
    18  C    8.531945   7.361265   6.090750   4.907282   3.665010
    19  C    9.804703   8.691103   7.353664   6.249350   4.902768
    20  C   10.977471   9.814222   8.531347   7.360260   6.090580
    21  C   12.255936  11.137229   9.804924   8.690614   7.354045
    22  C   13.422576  12.264535  10.974237   9.810605   8.528461
    23  H   11.064630  12.068258  13.467612  14.502207  15.886777
    24  H   11.080240  11.813582  13.286138  14.108717  15.569168
    25  H    8.663274   9.377599  10.850695  11.676783  13.135114
    26  H    8.937333   9.981347  11.357679  12.427737  13.789967
    27  H    6.619713   7.733510   9.061984  10.187434  11.508432
    28  H    6.547553   7.238649   8.712004   9.546147  11.000826
    29  H    4.203501   4.840707   6.314537   7.163516   8.610925
    30  H    4.624717   5.832939   7.074624   8.266978   9.524728
    31  H    2.634035   3.968500   4.965848   6.253404   7.373545
    32  H    2.207162   2.689510   4.164525   5.036301   6.470544
    33  H    1.087752   2.102362   2.654698   3.988097   4.990109
    34  H    2.104526   1.087647   2.222971   2.709366   4.184307
    35  H    2.702397   2.221639   1.087734   2.102966   2.655928
    36  H    3.995851   2.663070   2.104078   1.087668   2.223200
    37  H    5.041310   4.177969   2.702467   2.221747   1.087732
    38  H    6.288945   5.006289   3.995094   2.662552   2.103934
    39  H    7.451995   6.480123   5.042207   4.178680   2.703204
    40  H    8.669728   7.421525   6.287372   5.004762   3.994269
    41  H    9.883353   8.863729   7.454300   6.481884   5.044277
    42  H   11.081661   9.855545   8.667913   7.419463   6.286402
    43  H   12.334508  11.288332   9.897435   8.876606   7.467990
    44  H   13.532373  12.321791  11.103911   9.877781   8.690529
    45  H   14.350933  13.221078  11.899839  10.770486   9.449008
    46  H   12.403803  13.304559  14.745007  15.694437  17.119406
                   16         17         18         19         20
    16  C    0.000000
    17  C    1.477879   0.000000
    18  C    2.453469   1.339521   0.000000
    19  C    3.821492   2.451598   1.477894   0.000000
    20  C    4.906460   3.664949   2.452995   1.339478   0.000000
    21  C    6.248718   4.902883   3.820811   2.451288   1.477374
    22  C    7.356826   6.087616   4.903374   3.661535   2.450388
    23  H   16.942795  18.315894  19.387112  20.751434  21.833441
    24  H   16.452556  17.899786  18.826223  20.261169  21.218841
    25  H   14.031113  15.473578  16.416209  17.844497  18.819553
    26  H   14.877051  16.229041  17.327703  18.672291  19.778814
    27  H   12.641128  13.957126  15.094447  16.407236  17.547284
    28  H   11.914692  13.350163  14.313370  15.732636  16.728456
    29  H    9.554087  10.976922  11.971305  13.375443  14.401072
    30  H   10.709038  11.975234  13.154495  14.426256  15.601626
    31  H    8.629200   9.801786  11.037352  12.238887  13.460577
    32  H    7.453821   8.856950   9.889820  11.272729  12.332762
    33  H    6.276424   7.399377   8.653697   9.828959  11.062832
    34  H    5.056089   6.490569   7.472858   8.876725   9.907844
    35  H    3.989237   4.991956   6.277901   7.402139   8.655605
    36  H    2.709402   4.184409   5.055384   6.490290   7.471128
    37  H    2.102996   2.656450   3.989661   4.993477   6.278867
    38  H    1.087671   2.223114   2.708671   4.183768   5.053518
    39  H    2.221971   1.087726   2.103101   2.657351   3.990401
    40  H    2.661674   2.103764   1.087674   2.222918   2.707619
    41  H    4.179825   2.704393   2.222323   1.087734   2.103144
    42  H    5.003386   3.993988   2.661299   2.103985   1.087691
    43  H    6.493790   5.056861   4.190188   2.714963   2.228237
    44  H    7.442022   6.308640   5.026067   4.013969   2.681993
    45  H    8.321323   6.998136   5.875538   4.547392   3.440228
    46  H   18.103214  19.514971  20.523704  21.924554  22.951552
                   21         22         23         24         25
    21  C    0.000000
    22  C    1.334958   0.000000
    23  H   23.190488  24.279086   0.000000
    24  H   22.642457  23.623019   3.069152   0.000000
    25  H   20.235292  21.233221   3.855564   2.436289   0.000000
    26  H   21.117477  22.228026   2.164731   3.813752   3.072884
    27  H   18.857550  19.997453   4.561767   5.600168   3.818464
    28  H   18.134088  19.151908   5.407656   4.575142   2.138974
    29  H   15.790681  16.835970   7.499024   6.973062   4.536949
    30  H   16.877059  18.047215   6.696644   7.484567   5.369930
    31  H   14.680138  15.889218   9.114924   9.740734   7.477735
    32  H   13.701486  14.777050   9.502888   9.124375   6.688260
    33  H   12.266572  13.483908  11.378557  11.662655   9.282878
    34  H   11.291339  12.348134  11.937430  11.411013   8.983196
    35  H    9.831997  11.062103  13.725690  13.775132  11.352229
    36  H    8.875221   9.903600  14.393331  13.772826  11.360889
    37  H    7.403991   8.653747  16.105786  15.988465  13.553120
    38  H    6.488326   7.466934  16.850027  16.165480  13.768670
    39  H    4.994766   6.276387  18.506054  18.265767  15.830624
    40  H    4.182256   5.050574  19.305943  18.575510  16.191598
    41  H    2.657433   3.986238  20.920264  20.586153  18.156340
    42  H    2.222034   2.706558  21.761089  20.996252  18.623099
    43  H    1.086774   2.089902  23.354609  22.946254  20.523733
    44  H    2.112401   1.086035  24.241245  23.450268  21.086010
    45  H    2.099276   1.085235  25.262197  24.655067  22.258398
    46  H   24.342934  25.382780   1.853290   2.377516   4.274586
                   26         27         28         29         30
    26  H    0.000000
    27  H    2.397155   0.000000
    28  H    3.815814   3.073048   0.000000
    29  H    5.583228   3.815633   2.397976   0.000000
    30  H    4.532065   2.134912   3.816560   3.072908   0.000000
    31  H    6.950335   4.553187   5.594752   3.818371   2.418309
    32  H    7.478559   5.385328   4.549299   2.151354   3.834083
    33  H    9.221216   6.842138   7.215404   4.969717   4.738846
    34  H    9.917711   7.789967   6.860641   4.499752   6.067059
    35  H   11.582315   9.227156   9.226696   6.853593   7.153378
    36  H   12.375741  10.228247   9.259898   6.932382   8.430194
    37  H   13.975828  11.640145  11.414458   9.016973   9.585794
    38  H   14.833428  12.673032  11.685080   9.379111  10.833557
    39  H   16.387590  14.066911  13.694334  11.300607  12.025636
    40  H   17.289711  15.120057  14.121349  11.829766  13.254295
    41  H   18.811401  16.502350  16.027561  13.644884  14.470298
    42  H   19.744923  17.568290  16.563179  14.281735  15.684373
    43  H   21.253841  18.954075  18.403880  16.033488  16.928918
    44  H   22.224772  20.042324  19.034125  16.759946  18.144663
    45  H   23.197735  20.947165  20.168642  17.839902  18.973356
    46  H    3.807402   6.144549   6.246319   8.552714   8.255126
                   31         32         33         34         35
    31  H    0.000000
    32  H    3.071195   0.000000
    33  H    2.418874   3.159329   0.000000
    34  H    4.546723   2.439567   3.069195   0.000000
    35  H    4.863435   4.748504   2.444615   3.171657   0.000000
    36  H    6.629328   4.898081   4.560949   2.458543   3.069422
    37  H    7.309574   6.866652   4.890814   4.767302   2.446214
    38  H    8.901897   7.356238   6.648861   4.916737   4.561577
    39  H    9.756818   9.154061   7.338121   6.887181   4.893544
    40  H   11.249095   9.812962   8.923147   7.373504   6.649207
    41  H   12.205918  11.511065   9.787280   9.175653   7.342730
    42  H   13.632586  12.268575  11.271669   9.829159   8.923811
    43  H   14.667534  13.912876  12.248946  11.543263   9.804419
    44  H   16.060143  14.748858  13.679752  12.309498  11.295747
    45  H   16.779357  15.765193  14.365498  13.344618  11.929899
    46  H   10.656258  10.658322  12.822943  13.051833  15.097995
                   36         37         38         39         40
    36  H    0.000000
    37  H    3.171893   0.000000
    38  H    2.458205   3.069359   0.000000
    39  H    4.767964   2.447340   3.171977   0.000000
    40  H    4.914993   4.561298   2.456796   3.069319   0.000000
    41  H    6.888426   4.896541   4.768356   2.449207   3.172083
    42  H    7.370670   6.649362   4.912485   4.561753   2.455694
    43  H    9.187001   7.358244   6.898208   4.910917   4.776439
    44  H    9.851043   8.946463   7.392882   6.670410   4.936106
    45  H   10.911123   9.498699   8.490252   7.078410   6.098255
    46  H   15.480864  17.423788  17.918909  19.782233  20.361328
                   41         42         43         44         45
    41  H    0.000000
    42  H    3.069528   0.000000
    43  H    2.461712   3.175507   0.000000
    44  H    4.577864   2.480424   3.067018   0.000000
    45  H    4.686416   3.788502   2.403036   1.869581   0.000000
    46  H   22.163432  22.806280  24.570913  25.278815  26.391056
                   46
    46  H    0.000000
 Stoichiometry    C22H24
 Framework group  C1[X(C22H24)]
 Deg. of freedom   132
 Full point group                 C1      NOp   1
 Largest Abelian subgroup         C1      NOp   1
 Largest concise Abelian subgroup C1      NOp   1
                         Standard orientation:                         
 ---------------------------------------------------------------------
 Center     Atomic      Atomic             Coordinates (Angstroms)
 Number     Number       Type             X           Y           Z
 ---------------------------------------------------------------------
      1          6           0       11.907140   -0.768949    0.032341
      2          6           0       10.880353   -1.629295    0.004308
      3          6           0        9.441807   -1.251492   -0.004313
      4          6           0        8.983060    0.017656    0.012830
      5          6           0        7.546365    0.408351    0.006151
      6          6           0        6.508552   -0.455061   -0.015846
      7          6           0        5.071701   -0.063527   -0.019272
      8          6           0        4.615272    1.206680   -0.004941
      9          6           0        3.178704    1.593682   -0.004643
     10          6           0        2.141986    0.736937   -0.014568
     11          6           0        0.752269    1.242376   -0.009086
     12          6           0       -0.290734    0.401378   -0.014295
     13          6           0       -1.676751    0.914115   -0.005909
     14          6           0       -2.723344    0.078009   -0.008917
     15          6           0       -4.107054    0.596950    0.000787
     16          6           0       -5.157150   -0.234700   -0.002500
     17          6           0       -6.538875    0.289578    0.007173
     18          6           0       -7.591727   -0.538548    0.002056
     19          6           0       -8.972035   -0.010496    0.011044
     20          6           0      -10.026572   -0.836391    0.003931
     21          6           0      -11.405442   -0.306033    0.012321
     22          6           0      -12.459951   -1.124602    0.004191
     23          1           0       11.776959    0.305056    0.051636
     24          1           0       11.111118   -2.690301   -0.013083
     25          1           0        8.751574   -2.083757   -0.025746
     26          1           0        9.680647    0.844704    0.033871
     27          1           0        7.367825    1.474839    0.022233
     28          1           0        6.687811   -1.521558   -0.030774
     29          1           0        4.374349   -0.890545   -0.033586
     30          1           0        5.308223    2.036716    0.008664
     31          1           0        2.971798    2.660678    0.006636
     32          1           0        2.295963   -0.335069   -0.024717
     33          1           0        0.577619    2.315968    0.000939
     34          1           0       -0.120118   -0.672764   -0.023564
     35          1           0       -1.844991    1.988717    0.003631
     36          1           0       -2.557201   -0.996854   -0.018212
     37          1           0       -4.270639    1.672265    0.010758
     38          1           0       -4.995344   -1.310221   -0.012661
     39          1           0       -6.698660    1.365448    0.018196
     40          1           0       -7.433216   -1.614549   -0.009352
     41          1           0       -9.129452    1.065718    0.023192
     42          1           0       -9.870732   -1.912788   -0.008543
     43          1           0      -11.573053    0.767662    0.025154
     44          1           0      -12.334091   -2.203242   -0.008800
     45          1           0      -13.464628   -0.714333    0.010449
     46          1           0       12.922794   -1.151489    0.036612
 ---------------------------------------------------------------------
 Rotational constants (GHZ):           2.0816802           0.0313522           0.0308872
 Standard basis: 6-31G(d,p) (6D, 7F)
 There are   450 symmetry adapted cartesian basis functions of A   symmetry.
 There are   450 symmetry adapted basis functions of A   symmetry.
   450 basis functions,   784 primitive gaussians,   450 cartesian basis functions
    78 alpha electrons       78 beta electrons
       nuclear repulsion energy      1253.3888450201 Hartrees.
 NAtoms=   46 NActive=   46 NUniq=   46 SFac= 1.00D+00 NAtFMM=   60 NAOKFM=F Big=F
 Integral buffers will be    131072 words long.
 Raffenetti 2 integral format.
 Two-electron integral symmetry is turned on.
 One-electron integrals computed using PRISM.
 NBasis=   450 RedAO= T EigKep=  8.29D-04  NBF=   450
 NBsUse=   450 1.00D-06 EigRej= -1.00D+00 NBFU=   450
 ExpMin= 1.61D-01 ExpMax= 3.05D+03 ExpMxC= 4.57D+02 IAcc=3 IRadAn=         5 AccDes= 0.00D+00
 Harris functional with IExCor=  402 and IRadAn=       5 diagonalized for initial guess.
 HarFok:  IExCor=  402 AccDes= 0.00D+00 IRadAn=         5 IDoV= 1 UseB2=F ITyADJ=14
 ICtDFT=  3500011 ScaDFX=  1.000000  1.000000  1.000000  1.000000
 FoFCou: FMM=F IPFlag=           0 FMFlag=      100000 FMFlg1=           0
         NFxFlg=           0 DoJE=T BraDBF=F KetDBF=T FulRan=T
         wScrn=  0.000000 ICntrl=       500 IOpCl=  0 I1Cent=   200000004 NGrid=           0
         NMat0=    1 NMatS0=      1 NMatT0=    0 NMatD0=    1 NMtDS0=    0 NMtDT0=    0
 Petite list used in FoFCou.
 Requested convergence on RMS density matrix=1.00D-08 within 128 cycles.
 Requested convergence on MAX density matrix=1.00D-06.
 Requested convergence on             energy=1.00D-06.
 No special actions if energy rises.
 Integral accuracy reduced to 1.0D-05 until final iterations.
