 Entering Gaussian System, Link 0=g16
 Input=./com/11.com
 Output=./log/11.log
 Initial command:
 /home/shohei/gaussian/g16/l1.exe "/home/shohei/gaussian/scratch/Gau-15090.inp" -scrdir="/home/shohei/gaussian/scratch/"
 Entering Link 1 = /home/shohei/gaussian/g16/l1.exe PID=     15092.
  
 Copyright (c) 1988-2017, Gaussian, Inc.  All Rights Reserved.
  
 This is part of the Gaussian(R) 16 program.  It is based on
 the Gaussian(R) 09 system (copyright 2009, Gaussian, Inc.),
 the Gaussian(R) 03 system (copyright 2003, Gaussian, Inc.),
 the Gaussian(R) 98 system (copyright 1998, Gaussian, Inc.),
 the Gaussian(R) 94 system (copyright 1995, Gaussian, Inc.),
 the Gaussian 92(TM) system (copyright 1992, Gaussian, Inc.),
 the Gaussian 90(TM) system (copyright 1990, Gaussian, Inc.),
 the Gaussian 88(TM) system (copyright 1988, Gaussian, Inc.),
 the Gaussian 86(TM) system (copyright 1986, Carnegie Mellon
 University), and the Gaussian 82(TM) system (copyright 1983,
 Carnegie Mellon University). Gaussian is a federally registered
 trademark of Gaussian, Inc.
  
 This software contains proprietary and confidential information,
 including trade secrets, belonging to Gaussian, Inc.
  
 This software is provided under written license and may be
 used, copied, transmitted, or stored only in accord with that
 written license.
  
 The following legend is applicable only to US Government
 contracts under FAR:
  
                    RESTRICTED RIGHTS LEGEND
  
 Use, reproduction and disclosure by the US Government is
 subject to restrictions as set forth in subparagraphs (a)
 and (c) of the Commercial Computer Software - Restricted
 Rights clause in FAR 52.227-19.
  
 Gaussian, Inc.
 340 Quinnipiac St., Bldg. 40, Wallingford CT 06492
  
  
 ---------------------------------------------------------------
 Warning -- This program may not be used in any manner that
 competes with the business of Gaussian, Inc. or will provide
 assistance to any competitor of Gaussian, Inc.  The licensee
 of this program is prohibited from giving any competitor of
 Gaussian, Inc. access to this program.  By using this program,
 the user acknowledges that Gaussian, Inc. is engaged in the
 business of creating and licensing software in the field of
 computational chemistry and represents and warrants to the
 licensee that it is not a competitor of Gaussian, Inc. and that
 it will not use this program in any manner prohibited above.
 ---------------------------------------------------------------
  

 Cite this work as:
 Gaussian 16, Revision B.01,
 M. J. Frisch, G. W. Trucks, H. B. Schlegel, G. E. Scuseria, 
 M. A. Robb, J. R. Cheeseman, G. Scalmani, V. Barone, 
 G. A. Petersson, H. Nakatsuji, X. Li, M. Caricato, A. V. Marenich, 
 J. Bloino, B. G. Janesko, R. Gomperts, B. Mennucci, H. P. Hratchian, 
 J. V. Ortiz, A. F. Izmaylov, J. L. Sonnenberg, D. Williams-Young, 
 F. Ding, F. Lipparini, F. Egidi, J. Goings, B. Peng, A. Petrone, 
 T. Henderson, D. Ranasinghe, V. G. Zakrzewski, J. Gao, N. Rega, 
 G. Zheng, W. Liang, M. Hada, M. Ehara, K. Toyota, R. Fukuda, 
 J. Hasegawa, M. Ishida, T. Nakajima, Y. Honda, O. Kitao, H. Nakai, 
 T. Vreven, K. Throssell, J. A. Montgomery, Jr., J. E. Peralta, 
 F. Ogliaro, M. J. Bearpark, J. J. Heyd, E. N. Brothers, K. N. Kudin, 
 V. N. Staroverov, T. A. Keith, R. Kobayashi, J. Normand, 
 K. Raghavachari, A. P. Rendell, J. C. Burant, S. S. Iyengar, 
 J. Tomasi, M. Cossi, J. M. Millam, M. Klene, C. Adamo, R. Cammi, 
 J. W. Ochterski, R. L. Martin, K. Morokuma, O. Farkas, 
 J. B. Foresman, and D. J. Fox, Gaussian, Inc., Wallingford CT, 2016.
 
 ******************************************
 Gaussian 16:  EM64L-G16RevB.01 20-Dec-2017
                 9-Nov-2023 
 ******************************************
 %chk=checkpoint.chk
 %nprocshared=4
 Will use up to    4 processors via shared memory.
 ---------------------------
 # B3LYP/6-31G(d,p) OPT FREQ
 ---------------------------
 1/18=20,19=15,26=3,38=1/1,3;
 2/9=110,12=2,17=6,18=5,40=1/2;
 3/5=1,6=6,7=101,11=2,25=1,30=1,71=1,74=-5/1,2,3;
 4//1;
 5/5=2,38=5/2;
 6/7=2,8=2,9=2,10=2,28=1/1;
 7//1,2,3,16;
 1/18=20,19=15,26=3/3(2);
 2/9=110/2;
 99//99;
 2/9=110/2;
 3/5=1,6=6,7=101,11=2,25=1,30=1,71=1,74=-5/1,2,3;
 4/5=5,16=3,69=1/1;
 5/5=2,38=5/2;
 7//1,2,3,16;
 1/18=20,19=15,26=3/3(-5);
 2/9=110/2;
 6/7=2,8=2,9=2,10=2,19=2,28=1/1;
 99/9=1/99;
 ------
 11poly
 ------
 Symbolic Z-matrix:
 Charge =  0 Multiplicity = 1
 C                    -2.33319   1.0853    0.01801 
 C                    -1.1218    1.64479  -0.02353 
 C                     0.10251   0.81913   0.01857 
 C                     1.31598   1.38494  -0.02328 
 C                     2.54116   0.55971   0.01888 
 C                     3.7546    1.12577  -0.02278 
 C                     4.97979   0.30063   0.01952 
 C                     6.19331   0.86656  -0.02192 
 C                     7.41816   0.04095   0.02054 
 C                     8.63212   0.60597  -0.02074 
 C                     9.856    -0.22106   0.02184 
 C                     11.07085   0.34202  -0.01949 
 C                     12.29309  -0.48746   0.0231 
 C                     13.50924   0.07275  -0.01852 
 C                     14.72935  -0.75993   0.02397 
 C                     15.94697  -0.20305  -0.01816 
 C                     17.16489  -1.03901   0.02415 
 C                     18.38387  -0.48518  -0.01855 
 C                     19.60003  -1.32377   0.02359 
 C                     20.8199  -0.7721   -0.01956 
 C                     22.0343  -1.61235   0.02248 
 C                     23.25235  -1.0677   -0.02049 
 H                    -3.22012   1.70983  -0.01406 
 H                    -2.45273   0.00786   0.08389 
 H                    -1.0439    2.72673  -0.0894 
 H                     0.01211  -0.26281   0.0845 
 H                     1.40539   2.46694  -0.08919 
 H                     2.45168  -0.52229   0.08476 
 H                     3.84405   2.20776  -0.08862 
 H                     4.89025  -0.78137   0.08532 
 H                     6.28305   1.94852  -0.08769 
 H                     7.32795  -1.041     0.08631 
 H                     8.72286   1.68784  -0.08652 
 H                     9.76427  -1.30288   0.08766 
 H                     11.1635   1.42373  -0.08539 
 H                     12.199   -1.56907   0.08911 
 H                     13.6045   1.15421  -0.08466 
 H                     14.63242  -1.84126   0.09027 
 H                     16.04511   0.87814  -0.08462 
 H                     17.06524  -2.12007   0.09079 
 H                     18.48451   0.59576  -0.08532 
 H                     19.49849  -2.40466   0.0905 
 H                     20.9229   0.30862  -0.08657 
 H                     21.94342  -2.69324   0.08947 
 H                     23.38494   0.00813  -0.08753 
 H                     24.1316  -1.70301   0.01156 
 

 GradGradGradGradGradGradGradGradGradGradGradGradGradGradGradGradGradGrad
 Berny optimization.
 Initialization pass.
                           ----------------------------
                           !    Initial Parameters    !
                           ! (Angstroms and Degrees)  !
 --------------------------                            --------------------------
 ! Name  Definition              Value          Derivative Info.                !
 --------------------------------------------------------------------------------
 ! R1    R(1,2)                  1.335          estimate D2E/DX2                !
 ! R2    R(1,23)                 1.0852         estimate D2E/DX2                !
 ! R3    R(1,24)                 1.0861         estimate D2E/DX2                !
 ! R4    R(2,3)                  1.4773         estimate D2E/DX2                !
 ! R5    R(2,25)                 1.0867         estimate D2E/DX2                !
 ! R6    R(3,4)                  1.3396         estimate D2E/DX2                !
 ! R7    R(3,26)                 1.0877         estimate D2E/DX2                !
 ! R8    R(4,5)                  1.4778         estimate D2E/DX2                !
 ! R9    R(4,27)                 1.0877         estimate D2E/DX2                !
 ! R10   R(5,6)                  1.3396         estimate D2E/DX2                !
 ! R11   R(5,28)                 1.0877         estimate D2E/DX2                !
 ! R12   R(6,7)                  1.4778         estimate D2E/DX2                !
 ! R13   R(6,29)                 1.0877         estimate D2E/DX2                !
 ! R14   R(7,8)                  1.3396         estimate D2E/DX2                !
 ! R15   R(7,30)                 1.0877         estimate D2E/DX2                !
 ! R16   R(8,9)                  1.4777         estimate D2E/DX2                !
 ! R17   R(8,31)                 1.0877         estimate D2E/DX2                !
 ! R18   R(9,10)                 1.3396         estimate D2E/DX2                !
 ! R19   R(9,32)                 1.0877         estimate D2E/DX2                !
 ! R20   R(10,11)                1.4777         estimate D2E/DX2                !
 ! R21   R(10,33)                1.0877         estimate D2E/DX2                !
 ! R22   R(11,12)                1.3396         estimate D2E/DX2                !
 ! R23   R(11,34)                1.0877         estimate D2E/DX2                !
 ! R24   R(12,13)                1.4777         estimate D2E/DX2                !
 ! R25   R(12,35)                1.0877         estimate D2E/DX2                !
 ! R26   R(13,14)                1.3396         estimate D2E/DX2                !
 ! R27   R(13,36)                1.0877         estimate D2E/DX2                !
 ! R28   R(14,15)                1.4778         estimate D2E/DX2                !
 ! R29   R(14,37)                1.0877         estimate D2E/DX2                !
 ! R30   R(15,16)                1.3396         estimate D2E/DX2                !
 ! R31   R(15,38)                1.0877         estimate D2E/DX2                !
 ! R32   R(16,17)                1.4778         estimate D2E/DX2                !
 ! R33   R(16,39)                1.0877         estimate D2E/DX2                !
 ! R34   R(17,18)                1.3396         estimate D2E/DX2                !
 ! R35   R(17,40)                1.0877         estimate D2E/DX2                !
 ! R36   R(18,19)                1.4779         estimate D2E/DX2                !
 ! R37   R(18,41)                1.0877         estimate D2E/DX2                !
 ! R38   R(19,20)                1.3395         estimate D2E/DX2                !
 ! R39   R(19,42)                1.0877         estimate D2E/DX2                !
 ! R40   R(20,21)                1.4774         estimate D2E/DX2                !
 ! R41   R(20,43)                1.0877         estimate D2E/DX2                !
 ! R42   R(21,22)                1.335          estimate D2E/DX2                !
 ! R43   R(21,44)                1.0868         estimate D2E/DX2                !
 ! R44   R(22,45)                1.086          estimate D2E/DX2                !
 ! R45   R(22,46)                1.0852         estimate D2E/DX2                !
 ! A1    A(2,1,23)             119.9673         estimate D2E/DX2                !
 ! A2    A(2,1,24)             121.1665         estimate D2E/DX2                !
 ! A3    A(23,1,24)            118.8662         estimate D2E/DX2                !
 ! A4    A(1,2,3)              121.1246         estimate D2E/DX2                !
 ! A5    A(1,2,25)             118.9582         estimate D2E/DX2                !
 ! A6    A(3,2,25)             119.9172         estimate D2E/DX2                !
 ! A7    A(2,3,4)              120.9163         estimate D2E/DX2                !
 ! A8    A(2,3,26)             119.2604         estimate D2E/DX2                !
 ! A9    A(4,3,26)             119.8234         estimate D2E/DX2                !
 ! A10   A(3,4,5)              120.9487         estimate D2E/DX2                !
 ! A11   A(3,4,27)             119.771          estimate D2E/DX2                !
 ! A12   A(5,4,27)             119.2803         estimate D2E/DX2                !
 ! A13   A(4,5,6)              120.9387         estimate D2E/DX2                !
 ! A14   A(4,5,28)             119.2765         estimate D2E/DX2                !
 ! A15   A(6,5,28)             119.7848         estimate D2E/DX2                !
 ! A16   A(5,6,7)              120.9417         estimate D2E/DX2                !
 ! A17   A(5,6,29)             119.7834         estimate D2E/DX2                !
 ! A18   A(7,6,29)             119.275          estimate D2E/DX2                !
 ! A19   A(6,7,8)              120.9488         estimate D2E/DX2                !
 ! A20   A(6,7,30)             119.2703         estimate D2E/DX2                !
 ! A21   A(8,7,30)             119.7809         estimate D2E/DX2                !
 ! A22   A(7,8,9)              120.9256         estimate D2E/DX2                !
 ! A23   A(7,8,31)             119.791          estimate D2E/DX2                !
 ! A24   A(9,8,31)             119.2833         estimate D2E/DX2                !
 ! A25   A(8,9,10)             120.9689         estimate D2E/DX2                !
 ! A26   A(8,9,32)             119.2582         estimate D2E/DX2                !
 ! A27   A(10,9,32)            119.7729         estimate D2E/DX2                !
 ! A28   A(9,10,11)            120.9022         estimate D2E/DX2                !
 ! A29   A(9,10,33)            119.8013         estimate D2E/DX2                !
 ! A30   A(11,10,33)           119.2965         estimate D2E/DX2                !
 ! A31   A(10,11,12)           120.9933         estimate D2E/DX2                !
 ! A32   A(10,11,34)           119.2445         estimate D2E/DX2                !
 ! A33   A(12,11,34)           119.7622         estimate D2E/DX2                !
 ! A34   A(11,12,13)           120.8789         estimate D2E/DX2                !
 ! A35   A(11,12,35)           119.8107         estimate D2E/DX2                !
 ! A36   A(13,12,35)           119.3105         estimate D2E/DX2                !
 ! A37   A(12,13,14)           121.0129         estimate D2E/DX2                !
 ! A38   A(12,13,36)           119.2344         estimate D2E/DX2                !
 ! A39   A(14,13,36)           119.7527         estimate D2E/DX2                !
 ! A40   A(13,14,15)           120.8647         estimate D2E/DX2                !
 ! A41   A(13,14,37)           119.8153         estimate D2E/DX2                !
 ! A42   A(15,14,37)           119.3199         estimate D2E/DX2                !
 ! A43   A(14,15,16)           121.0192         estimate D2E/DX2                !
 ! A44   A(14,15,38)           119.2324         estimate D2E/DX2                !
 ! A45   A(16,15,38)           119.7483         estimate D2E/DX2                !
 ! A46   A(15,16,17)           120.8669         estimate D2E/DX2                !
 ! A47   A(15,16,39)           119.8128         estimate D2E/DX2                !
 ! A48   A(17,16,39)           119.3204         estimate D2E/DX2                !
 ! A49   A(16,17,18)           121.0083         estimate D2E/DX2                !
 ! A50   A(16,17,40)           119.2403         estimate D2E/DX2                !
 ! A51   A(18,17,40)           119.7514         estimate D2E/DX2                !
 ! A52   A(17,18,19)           120.8863         estimate D2E/DX2                !
 ! A53   A(17,18,41)           119.8036         estimate D2E/DX2                !
 ! A54   A(19,18,41)           119.3101         estimate D2E/DX2                !
 ! A55   A(18,19,20)           120.9848         estimate D2E/DX2                !
 ! A56   A(18,19,42)           119.2629         estimate D2E/DX2                !
 ! A57   A(20,19,42)           119.7523         estimate D2E/DX2                !
 ! A58   A(19,20,21)           120.8933         estimate D2E/DX2                !
 ! A59   A(19,20,43)           119.8303         estimate D2E/DX2                !
 ! A60   A(21,20,43)           119.2764         estimate D2E/DX2                !
 ! A61   A(20,21,22)           121.1351         estimate D2E/DX2                !
 ! A62   A(20,21,44)           119.9134         estimate D2E/DX2                !
 ! A63   A(22,21,44)           118.9516         estimate D2E/DX2                !
 ! A64   A(21,22,45)           121.1671         estimate D2E/DX2                !
 ! A65   A(21,22,46)           119.9626         estimate D2E/DX2                !
 ! A66   A(45,22,46)           118.8702         estimate D2E/DX2                !
 ! D1    D(23,1,2,3)           179.9989         estimate D2E/DX2                !
 ! D2    D(23,1,2,25)            0.0003         estimate D2E/DX2                !
 ! D3    D(24,1,2,3)            -0.0005         estimate D2E/DX2                !
 ! D4    D(24,1,2,25)         -179.9991         estimate D2E/DX2                !
 ! D5    D(1,2,3,4)           -179.9955         estimate D2E/DX2                !
 ! D6    D(1,2,3,26)             0.002          estimate D2E/DX2                !
 ! D7    D(25,2,3,4)             0.0031         estimate D2E/DX2                !
 ! D8    D(25,2,3,26)         -179.9994         estimate D2E/DX2                !
 ! D9    D(2,3,4,5)            179.9957         estimate D2E/DX2                !
 ! D10   D(2,3,4,27)            -0.0006         estimate D2E/DX2                !
 ! D11   D(26,3,4,5)            -0.0017         estimate D2E/DX2                !
 ! D12   D(26,3,4,27)         -179.9981         estimate D2E/DX2                !
 ! D13   D(3,4,5,6)           -179.9902         estimate D2E/DX2                !
 ! D14   D(3,4,5,28)             0.0053         estimate D2E/DX2                !
 ! D15   D(27,4,5,6)             0.0061         estimate D2E/DX2                !
 ! D16   D(27,4,5,28)         -179.9983         estimate D2E/DX2                !
 ! D17   D(4,5,6,7)            179.9933         estimate D2E/DX2                !
 ! D18   D(4,5,6,29)            -0.0018         estimate D2E/DX2                !
 ! D19   D(28,5,6,7)            -0.0022         estimate D2E/DX2                !
 ! D20   D(28,5,6,29)         -179.9974         estimate D2E/DX2                !
 ! D21   D(5,6,7,8)           -179.9891         estimate D2E/DX2                !
 ! D22   D(5,6,7,30)             0.0066         estimate D2E/DX2                !
 ! D23   D(29,6,7,8)             0.0061         estimate D2E/DX2                !
 ! D24   D(29,6,7,30)         -179.9982         estimate D2E/DX2                !
 ! D25   D(6,7,8,9)            179.9941         estimate D2E/DX2                !
 ! D26   D(6,7,8,31)            -0.0024         estimate D2E/DX2                !
 ! D27   D(30,7,8,9)            -0.0015         estimate D2E/DX2                !
 ! D28   D(30,7,8,31)         -179.9981         estimate D2E/DX2                !
 ! D29   D(7,8,9,10)          -179.995          estimate D2E/DX2                !
 ! D30   D(7,8,9,32)             0.0037         estimate D2E/DX2                !
 ! D31   D(31,8,9,10)            0.0016         estimate D2E/DX2                !
 ! D32   D(31,8,9,32)         -179.9998         estimate D2E/DX2                !
 ! D33   D(8,9,10,11)          179.9989         estimate D2E/DX2                !
 ! D34   D(8,9,10,33)           -0.0019         estimate D2E/DX2                !
 ! D35   D(32,9,10,11)           0.0003         estimate D2E/DX2                !
 ! D36   D(32,9,10,33)         179.9995         estimate D2E/DX2                !
 ! D37   D(9,10,11,12)         179.9923         estimate D2E/DX2                !
 ! D38   D(9,10,11,34)          -0.0037         estimate D2E/DX2                !
 ! D39   D(33,10,11,12)         -0.0069         estimate D2E/DX2                !
 ! D40   D(33,10,11,34)        179.9971         estimate D2E/DX2                !
 ! D41   D(10,11,12,13)       -179.9935         estimate D2E/DX2                !
 ! D42   D(10,11,12,35)         -0.0002         estimate D2E/DX2                !
 ! D43   D(34,11,12,13)          0.0025         estimate D2E/DX2                !
 ! D44   D(34,11,12,35)        179.9958         estimate D2E/DX2                !
 ! D45   D(11,12,13,14)        179.977          estimate D2E/DX2                !
 ! D46   D(11,12,13,36)         -0.0133         estimate D2E/DX2                !
 ! D47   D(35,12,13,14)         -0.0164         estimate D2E/DX2                !
 ! D48   D(35,12,13,36)        179.9933         estimate D2E/DX2                !
 ! D49   D(12,13,14,15)       -179.9862         estimate D2E/DX2                !
 ! D50   D(12,13,14,37)          0.0021         estimate D2E/DX2                !
 ! D51   D(36,13,14,15)          0.0041         estimate D2E/DX2                !
 ! D52   D(36,13,14,37)        179.9923         estimate D2E/DX2                !
 ! D53   D(13,14,15,16)        179.9653         estimate D2E/DX2                !
 ! D54   D(13,14,15,38)         -0.0215         estimate D2E/DX2                !
 ! D55   D(37,14,15,16)         -0.0231         estimate D2E/DX2                !
 ! D56   D(37,14,15,38)        179.9902         estimate D2E/DX2                !
 ! D57   D(14,15,16,17)       -179.9823         estimate D2E/DX2                !
 ! D58   D(14,15,16,39)          0.0039         estimate D2E/DX2                !
 ! D59   D(38,15,16,17)          0.0043         estimate D2E/DX2                !
 ! D60   D(38,15,16,39)        179.9906         estimate D2E/DX2                !
 ! D61   D(15,16,17,18)        179.9629         estimate D2E/DX2                !
 ! D62   D(15,16,17,40)         -0.0242         estimate D2E/DX2                !
 ! D63   D(39,16,17,18)         -0.0234         estimate D2E/DX2                !
 ! D64   D(39,16,17,40)        179.9895         estimate D2E/DX2                !
 ! D65   D(16,17,18,19)       -179.984          estimate D2E/DX2                !
 ! D66   D(16,17,18,41)          0.0044         estimate D2E/DX2                !
 ! D67   D(40,17,18,19)          0.0029         estimate D2E/DX2                !
 ! D68   D(40,17,18,41)        179.9914         estimate D2E/DX2                !
 ! D69   D(17,18,19,20)        179.9715         estimate D2E/DX2                !
 ! D70   D(17,18,19,42)         -0.0197         estimate D2E/DX2                !
 ! D71   D(41,18,19,20)         -0.017          estimate D2E/DX2                !
 ! D72   D(41,18,19,42)        179.9918         estimate D2E/DX2                !
 ! D73   D(18,19,20,21)       -179.9905         estimate D2E/DX2                !
 ! D74   D(18,19,20,43)          0.0032         estimate D2E/DX2                !
 ! D75   D(42,19,20,21)          0.0007         estimate D2E/DX2                !
 ! D76   D(42,19,20,43)        179.9944         estimate D2E/DX2                !
 ! D77   D(19,20,21,22)        179.9868         estimate D2E/DX2                !
 ! D78   D(19,20,21,44)         -0.01           estimate D2E/DX2                !
 ! D79   D(43,20,21,22)         -0.0069         estimate D2E/DX2                !
 ! D80   D(43,20,21,44)        179.9963         estimate D2E/DX2                !
 ! D81   D(20,21,22,45)          0.0006         estimate D2E/DX2                !
 ! D82   D(20,21,22,46)       -179.9976         estimate D2E/DX2                !
 ! D83   D(44,21,22,45)        179.9975         estimate D2E/DX2                !
 ! D84   D(44,21,22,46)         -0.0007         estimate D2E/DX2                !
 --------------------------------------------------------------------------------
 Trust Radius=3.00D-01 FncErr=1.00D-07 GrdErr=1.00D-06 EigMax=2.50D+02 EigMin=1.00D-04
 Number of steps in this run=    205 maximum allowed number of steps=    276.
 GradGradGradGradGradGradGradGradGradGradGradGradGradGradGradGradGradGrad

                          Input orientation:                          
 ---------------------------------------------------------------------
 Center     Atomic      Atomic             Coordinates (Angstroms)
 Number     Number       Type             X           Y           Z
 ---------------------------------------------------------------------
      1          6           0       -2.333194    1.085302    0.018009
      2          6           0       -1.121803    1.644787   -0.023532
      3          6           0        0.102509    0.819130    0.018565
      4          6           0        1.315981    1.384939   -0.023281
      5          6           0        2.541162    0.559711    0.018880
      6          6           0        3.754597    1.125771   -0.022785
      7          6           0        4.979794    0.300633    0.019519
      8          6           0        6.193314    0.866562   -0.021920
      9          6           0        7.418160    0.040948    0.020544
     10          6           0        8.632119    0.605971   -0.020742
     11          6           0        9.855999   -0.221061    0.021837
     12          6           0       11.070851    0.342025   -0.019492
     13          6           0       12.293087   -0.487463    0.023102
     14          6           0       13.509237    0.072747   -0.018524
     15          6           0       14.729346   -0.759929    0.023970
     16          6           0       15.946974   -0.203049   -0.018161
     17          6           0       17.164892   -1.039006    0.024155
     18          6           0       18.383868   -0.485184   -0.018546
     19          6           0       19.600027   -1.323770    0.023590
     20          6           0       20.819897   -0.772102   -0.019559
     21          6           0       22.034301   -1.612354    0.022482
     22          6           0       23.252352   -1.067697   -0.020488
     23          1           0       -3.220118    1.709831   -0.014065
     24          1           0       -2.452727    0.007855    0.083888
     25          1           0       -1.043903    2.726731   -0.089401
     26          1           0        0.012107   -0.262807    0.084504
     27          1           0        1.405391    2.466945   -0.089185
     28          1           0        2.451682   -0.522290    0.084757
     29          1           0        3.844049    2.207756   -0.088617
     30          1           0        4.890251   -0.781369    0.085323
     31          1           0        6.283047    1.948522   -0.087691
     32          1           0        7.327949   -1.041002    0.086314
     33          1           0        8.722864    1.687844   -0.086519
     34          1           0        9.764267   -1.302879    0.087665
     35          1           0       11.163496    1.423729   -0.085387
     36          1           0       12.199001   -1.569067    0.089112
     37          1           0       13.604504    1.154210   -0.084659
     38          1           0       14.632423   -1.841265    0.090270
     39          1           0       16.045111    0.878141   -0.084617
     40          1           0       17.065239   -2.120074    0.090787
     41          1           0       18.484505    0.595759   -0.085320
     42          1           0       19.498495   -2.404663    0.090504
     43          1           0       20.922900    0.308623   -0.086567
     44          1           0       21.943420   -2.693236    0.089467
     45          1           0       23.384942    0.008127   -0.087531
     46          1           0       24.131596   -1.703015    0.011565
 ---------------------------------------------------------------------
                    Distance matrix (angstroms):
                    1          2          3          4          5
     1  C    0.000000
     2  C    1.334996   0.000000
     3  C    2.450203   1.477302   0.000000
     4  C    3.661689   2.451594   1.339555   0.000000
     5  C    4.902611   3.820537   2.452413   1.477785   0.000000
     6  C    6.088061   4.903943   3.665172   2.452348   1.339621
     7  C    7.354964   6.248047   4.904768   3.821135   2.452355
     8  C    8.529406   7.356397   6.091125   4.904803   3.665247
     9  C    9.807119   8.689374   7.356924   6.248585   4.904511
    10  C   10.975852   9.809084   8.532364   7.357490   6.091261
    11  C   12.258997  11.135330   9.808801   8.689831   7.356388
    12  C   13.424690  12.262057  10.978781   9.810462   8.532553
    13  C   14.710598  13.583370  12.260400  11.135748   9.807988
    14  C   15.874798  14.715253  13.427540  12.263660  10.978943
    15  C   17.162027  16.032587  14.711826  13.583852  12.259416
    16  C   18.325547  17.168509  15.877446  14.716918  13.427545
    17  C   19.613466  18.482647  17.163264  16.033269  14.710860
    18  C   20.776535  19.621621  18.327867  17.170036  15.877170
    19  C   22.065127  20.933438  19.614925  18.483658  17.162529
    20  C   23.227504  22.074410  20.778442  19.622833  18.327230
    21  C   24.516366  23.384103  22.066166  20.934055  19.613780
    22  C   25.676001  24.524621  23.226642  22.073055  20.775066
    23  H    1.085219   2.099344   3.440096   4.547729   5.875050
    24  H    1.086057   2.112449   2.681727   4.013852   5.024708
    25  H    2.089999   1.086743   2.228196   2.715480   4.190512
    26  H    2.705967   2.221788   1.087708   2.103990   2.660256
    27  H    3.987159   2.658376   2.103427   1.087692   2.222430
    28  H    5.048152   4.180639   2.705994   2.222388   1.087691
    29  H    6.279300   4.998086   3.992355   2.659403   2.103598
    30  H    7.461041   6.484047   5.048616   4.180919   2.705758
    31  H    8.660018   7.411354   6.283778   4.999351   3.992725
    32  H    9.892599   8.867009   7.461345   6.483900   5.047787
    33  H   11.072957   9.844963   8.664654   7.413343   6.284682
    34  H   12.331132  11.278636   9.892284   8.866240   7.459706
    35  H   13.501328  12.287444  11.077987   9.847787   8.666143
    36  H   14.772793  13.703480  12.330190  11.277362   9.889918
    37  H   15.938177  14.734603  13.506547  12.290842  11.079787
    38  H   17.216334  16.135710  14.771637  13.702150  12.327545
    39  H   18.379759  17.184133  15.943046  14.737974  13.508099
    40  H   19.661610  18.572984  17.215642  16.134969  14.769401
    41  H   20.823710  19.634450  18.383647  17.186764  15.943724
    42  H   22.108997  21.014465  19.662205  18.573579  17.214638
    43  H   23.269294  22.085250  20.826915  19.636540  18.383755
    44  H   24.569013  23.469890  22.121644  21.027017  19.673186
    45  H   25.740900  24.561419  23.296795  22.111959  20.851348
    46  H   26.611273  25.474363  24.161091  23.023660  21.708680
                    6          7          8          9         10
     6  C    0.000000
     7  C    1.477752   0.000000
     8  C    2.452454   1.339636   0.000000
     9  C    3.821049   2.452155   1.477731   0.000000
    10  C    4.905142   3.665287   2.452688   1.339646   0.000000
    11  C    6.248444   4.904033   3.821007   2.451878   1.477727
    12  C    7.358115   6.091323   4.905662   3.665297   2.452975
    13  C    8.689675   7.355635   6.248411   4.903482   3.821022
    14  C    9.811314   8.532572   7.358864   6.091285   4.906181
    15  C   11.135671   9.807067   8.689731   7.354920   6.248509
    16  C   12.264577  10.978805   9.812134   8.532391   7.359459
    17  C   13.583979  12.258518  11.135925   9.806380   8.690005
    18  C   14.717703  13.427143  12.265270  10.978392   9.812606
    19  C   16.033717  14.710198  13.584535  12.258073  11.136467
    20  C   17.170510  15.876434  14.718089  13.426437  12.265440
    21  C   18.483695  17.161461  16.033835  14.709351  13.584599
    22  C   19.620748  18.323763  17.168347  15.873009  14.715719
    23  H    6.999132   8.320188   9.451131  10.768442  11.903532
    24  H    6.308088   7.438563   8.689222   9.871145  11.101463
    25  H    5.058963   6.494824   7.472757   8.878740   9.905944
    26  H    3.993230   4.999960   6.284434   7.412555   8.664320
    27  H    2.705905   4.181039   5.048758   6.484666   7.462808
    28  H    2.103630   2.659475   3.992505   4.998726   6.283463
    29  H    1.087670   2.222325   2.705974   4.181058   5.049349
    30  H    2.222292   1.087692   2.103604   2.659084   3.992185
    31  H    2.659735   2.103687   1.087665   2.222394   2.706485
    32  H    4.180390   2.705231   2.222141   1.087694   2.103530
    33  H    5.000366   3.993266   2.660319   2.103801   1.087662
    34  H    6.482799   5.046492   4.179735   2.704551   2.221986
    35  H    7.415153   6.285740   5.001717   3.993851   2.660973
    36  H    8.864685   7.457719   6.481735   5.045125   4.179176
    37  H    9.850143   8.667472   7.417036   6.286595   5.002926
    38  H   11.275779   9.887668   8.863604   7.456083   6.481122
    39  H   12.293165  11.080867   9.852004   8.668116   7.418262
    40  H   13.701153  12.325700  11.275258   9.886408   8.863480
    41  H   14.739574  13.508343  12.294338  11.080750   9.852604
    42  H   16.135276  14.768762  13.701876  12.325599  11.276277
    43  H   17.187857  15.943461  14.740291  13.507817  12.294554
    44  H   18.585766  17.225932  16.147767  14.780517  13.714505
    45  H   19.662242  18.407783  17.213172  15.967181  14.765083
    46  H   20.572440  19.256328  18.121418  16.804179  15.670554
                   11         12         13         14         15
    11  C    0.000000
    12  C    1.339642   0.000000
    13  C    2.451606   1.477743   0.000000
    14  C    3.665256   2.453209   1.339622   0.000000
    15  C    4.903050   3.821096   2.451447   1.477776   0.000000
    16  C    6.091134   4.906494   3.665172   2.453289   1.339593
    17  C    7.354520   6.248718   4.902926   3.821208   2.451483
    18  C    8.532054   7.359653   6.090924   4.906457   3.665082
    19  C    9.806226   8.690430   7.354643   6.248981   4.903209
    20  C   10.977815   9.812500   8.531666   7.359315   6.090719
    21  C   12.257518  11.136364   9.805949   8.690108   7.354523
    22  C   13.423146  12.262800  10.974700   9.809633   8.528677
    23  H   13.217960  14.356279  15.668089  16.809265  18.118621
    24  H   12.311010  13.528101  14.754256  15.962424  17.199322
    25  H   11.292020  12.347428  13.719293  14.793327  16.154412
    26  H    9.844179  11.075760  12.283188  13.501693  14.725756
    27  H    8.868510   9.896528  11.281980  12.338568  13.709606
    28  H    7.410709   8.663025   9.841660  11.074036  12.280114
    29  H    6.484974   7.464074   8.869212   9.898436  11.283152
    30  H    4.997662   6.282740   7.408930   8.661826   9.839310
    31  H    4.181515   5.050600   6.485899   7.465999   8.870634
    32  H    2.658476   3.991650   4.996298   6.281699   7.406994
    33  H    2.222533   2.707170   4.182161   5.051983   6.487035
    34  H    1.087694   2.103415   2.657819   3.991043   4.995083
    35  H    2.103896   1.087662   2.222701   2.707789   4.182775
    36  H    2.703943   2.221889   1.087694   2.103297   2.657365
    37  H    3.994247   2.661445   2.103929   1.087664   2.222836
    38  H    5.044202   4.178946   2.703661   2.221897   1.087693
    39  H    6.286867   5.003491   3.994266   2.661519   2.103878
    40  H    7.455477   6.481263   5.044148   4.179182   2.703859
    41  H    8.667745   7.418287   6.286397   5.003129   3.993878
    42  H    9.886889   8.864625   7.456413   6.482334   5.045232
    43  H   11.080100   9.852333   8.667148   7.417726   6.286027
    44  H   12.337827  11.288818   9.899432   8.876810   7.468924
    45  H   13.531326  12.318804  11.103472   9.876157   8.690321
    46  H   14.352316  13.219917  11.900756  10.769807   9.449438
                   16         17         18         19         20
    16  C    0.000000
    17  C    1.477815   0.000000
    18  C    2.453172   1.339569   0.000000
    19  C    3.821329   2.451729   1.477851   0.000000
    20  C    4.906037   3.664998   2.452867   1.339508   0.000000
    21  C    6.248467   4.903048   3.820714   2.451321   1.477352
    22  C    7.356369   6.087691   4.903209   3.661556   2.450350
    23  H   19.262309  20.569545  21.715210  23.020929  24.167796
    24  H   18.401192  19.645621  20.842679  22.093003  23.285919
    25  H   17.241769  18.594458  19.691615  21.037851  22.142097
    26  H   15.935309  17.170444  18.373395  19.616726  20.814281
    27  H   14.784842  16.145167  17.233362  18.585667  19.682970
    28  H   13.499460  14.722405  15.932565  17.167174  18.370210
    29  H   12.340897  13.711274  14.787264  16.147294  17.235537
    30  H   11.072321  12.277497  13.497267  14.719903  15.929994
    31  H    9.900787  11.285051  12.343322  13.713579  14.789403
    32  H    8.660293   9.837139  11.070378  12.275495  13.495042
    33  H    7.467792   8.872192   9.902610  11.286923  12.344798
    34  H    6.280660   7.405600   8.658951   9.835991  11.068883
    35  H    5.052978   6.487974   7.468747   8.873313   9.903135
    36  H    3.990591   4.994522   6.280046   7.405380   8.658337
    37  H    2.708088   4.183109   5.053148   6.488328   7.468387
    38  H    2.103224   2.657327   3.990506   4.994931   6.280128
    39  H    1.087666   2.222879   2.707915   4.183007   5.052337
    40  H    2.222019   1.087694   2.103236   2.657775   3.990822
    41  H    2.661140   2.103763   1.087669   2.222800   2.707290
    42  H    4.179978   2.704649   2.222315   1.087712   2.103206
    43  H    5.002632   3.993869   2.661097   2.104004   1.087688
    44  H    6.493841   5.057180   4.190175   2.715007   2.228216
    45  H    7.441288   6.308564   5.025819   4.013960   2.681946
    46  H    8.320986   6.998288   5.875406   4.547426   3.440192
                   21         22         23         24         25
    21  C    0.000000
    22  C    1.334969   0.000000
    23  H   25.472023  26.617783   0.000000
    24  H   24.540648  25.727782   1.869547   0.000000
    25  H   23.482838  24.590861   2.403263   3.067099   0.000000
    26  H   22.063593  23.254415   3.787915   2.479650   3.175333
    27  H   21.028673  22.131157   4.687665   4.578444   2.463032
    28  H   19.613034  20.808085   6.096019   4.932978   4.775518
    29  H   18.587384  19.682872   7.082087   6.672234   4.915426
    30  H   17.164293  18.364638   8.484930   7.385268   6.895757
    31  H   16.149118  17.235411   9.506447   8.950383   7.368161
    32  H   14.717585  15.924783  10.901325   9.836754   9.182298
    33  H   13.714866  14.788624  11.943222  11.302443   9.821865
    34  H   12.274110  13.490568  13.329705  12.287106  11.536275
    35  H   11.287331  12.343089  14.386636  13.690686  12.276743
    36  H    9.835621  11.065258  15.764234  14.736344  13.923371
    37  H    8.872814   9.900604  16.833942  16.098981  14.732572
    38  H    7.405728   8.655278  18.202593  17.184924  16.329301
    39  H    6.487251   7.465568  19.283303  18.519066  17.188709
    40  H    4.995401   6.276962  20.644003  19.633621  18.747400
    41  H    4.181917   5.050114  21.733314  20.946168  19.644332
    42  H    2.657573   3.986382  23.088425  22.083397  21.174364
    43  H    2.221994   2.706468  24.183754  23.378183  22.099495
    44  H    1.086762   2.089921  25.546063  24.545221  23.618320
    45  H    2.112413   1.086036  26.659528  25.838237  24.579651
    46  H    2.099281   1.085231  27.563825  26.639416  25.562445
                   26         27         28         29         30
    26  H    0.000000
    27  H    3.069683   0.000000
    28  H    2.453335   3.171830   0.000000
    29  H    4.562613   2.452394   3.069511   0.000000
    30  H    4.905628   4.767205   2.452293   3.171697   0.000000
    31  H    6.651639   4.905129   4.562236   2.452735   3.069546
    32  H    7.357114   6.885724   4.903779   4.766822   2.451486
    33  H    8.928133   7.358832   6.651447   4.906439   4.562397
    34  H    9.807465   9.171350   7.354130   6.885101   4.901838
    35  H   11.279483   9.813712   8.928138   7.361319   6.651707
    36  H   12.256701  11.524895   9.803367   9.170671   7.351076
    37  H   13.667107  12.269542  11.279397   9.817151   8.928246
    38  H   14.705277  13.912126  12.251946  11.524564   9.799660
    39  H   16.074439  14.725683  13.666427  12.273297  11.278908
    40  H   17.153972  16.318822  14.700646  13.912661  12.248367
    41  H   18.493119  17.181313  16.072660  14.728934  13.664895
    42  H   19.603747  18.738337  17.150429  16.320789  14.698160
    43  H   20.919298  19.636485  18.490691  17.184116  16.070578
    44  H   22.065572  21.177110  19.612263  18.752030  17.160007
    45  H   23.375038  22.116655  20.940688  19.664304  18.512341
    46  H   24.162559  23.105824  21.712166  20.661285  19.263547
                   31         32         33         34         35
    31  H    0.000000
    32  H    3.171648   0.000000
    33  H    2.453704   3.069569   0.000000
    34  H    4.766681   2.450352   3.171637   0.000000
    35  H    4.908584   4.562433   2.454882   3.069557   0.000000
    36  H    6.884999   4.899593   4.766744   2.449242   3.171679
    37  H    7.364420   6.651566   4.910721   4.562281   2.455842
    38  H    9.170945   7.348181   6.885401   4.897837   4.767021
    39  H    9.820572   8.927555   7.366881   6.650980   4.912009
    40  H   11.525666   9.796898   9.172071   7.346564   6.886228
    41  H   12.276220  11.277286   9.822540   8.926214   7.367680
    42  H   13.915101  12.246704  11.527974   9.796383   9.173861
    43  H   14.731415  13.662871  12.277750  11.275743   9.822903
    44  H   16.334766  14.708564  13.928673  12.258256  11.540655
    45  H   17.211623  16.092169  14.757980  13.684744  12.303157
    46  H   18.218515  16.816848  15.777724  14.373101  13.340073
                   36         37         38         39         40
    36  H    0.000000
    37  H    3.069507   0.000000
    38  H    2.448598   3.171764   0.000000
    39  H    4.561970   2.456171   3.069436   0.000000
    40  H    4.897334   4.767431   2.448740   3.171863   0.000000
    41  H    6.650147   4.911851   4.561628   2.455684   3.069377
    42  H    7.347165   6.887335   4.898579   4.767948   2.449842
    43  H    8.925413   7.367085   6.650067   4.910924   4.561970
    44  H    9.809049   9.185351   7.360471   6.897469   4.911738
    45  H   11.297965   9.847359   8.947539   7.391214   6.670808
    46  H   11.933598  10.908375   9.500505   8.488984   7.079097
                   41         42         43         44         45
    41  H    0.000000
    42  H    3.172006   0.000000
    43  H    2.455243   3.069561   0.000000
    44  H    4.776204   2.461896   3.175469   0.000000
    45  H    4.935544   4.577961   2.480312   3.067031   0.000000
    46  H    6.097817   4.686594   3.788409   2.403065   1.869577
                   46
    46  H    0.000000
 Stoichiometry    C22H24
 Framework group  C1[X(C22H24)]
 Deg. of freedom   132
 Full point group                 C1      NOp   1
 Largest Abelian subgroup         C1      NOp   1
 Largest concise Abelian subgroup C1      NOp   1
                         Standard orientation:                         
 ---------------------------------------------------------------------
 Center     Atomic      Atomic             Coordinates (Angstroms)
 Number     Number       Type             X           Y           Z
 ---------------------------------------------------------------------
      1          6           0       12.833073   -0.314227    0.001728
      2          6           0       11.687684    0.371555    0.001489
      3          6           0       10.382881   -0.321200    0.001543
      4          6           0        9.236089    0.371098    0.001211
      5          6           0        7.930468   -0.321144    0.001170
      6          6           0        6.783741    0.371389    0.000643
      7          6           0        5.478113   -0.320772    0.000455
      8          6           0        4.331287    0.371625   -0.000291
      9          6           0        3.025957   -0.321053   -0.000609
     10          6           0        1.878600    0.370482   -0.001455
     11          6           0        0.574081   -0.323713   -0.001795
     12          6           0       -0.574371    0.365996   -0.002487
     13          6           0       -1.877515   -0.330811   -0.002683
     14          6           0       -3.027561    0.356199   -0.002913
     15          6           0       -4.328927   -0.343992   -0.002802
     16          6           0       -5.480795    0.339901   -0.002335
     17          6           0       -6.780330   -0.363767   -0.001834
     18          6           0       -7.933862    0.317266   -0.000622
     19          6           0       -9.231926   -0.389185    0.000229
     20          6           0      -10.386575    0.289833    0.002013
     21          6           0      -11.683070   -0.418452    0.003071
     22          6           0      -12.836652    0.253403    0.005112
     23          1           0       13.781102    0.213923    0.001664
     24          1           0       12.837929   -1.400273    0.001976
     25          1           0       11.724703    1.457668    0.001228
     26          1           0       10.358293   -1.408630    0.001815
     27          1           0        9.261671    1.458489    0.000908
     28          1           0        7.904958   -1.408536    0.001502
     29          1           0        6.809277    1.458759    0.000269
     30          1           0        5.452665   -1.408166    0.000859
     31          1           0        4.356542    1.458997   -0.000727
     32          1           0        3.001179   -1.408465   -0.000169
     33          1           0        1.902839    1.457875   -0.001887
     34          1           0        0.550828   -1.411158   -0.001411
     35          1           0       -0.552039    1.453429   -0.002803
     36          1           0       -1.898403   -1.418304   -0.002478
     37          1           0       -3.007862    1.443685   -0.002992
     38          1           0       -4.346966   -1.431535   -0.002885
     39          1           0       -5.463979    1.427437   -0.002096
     40          1           0       -6.795626   -1.451353   -0.002247
     41          1           0       -7.919558    1.404841   -0.000066
     42          1           0       -9.245335   -1.476814   -0.000464
     43          1           0      -10.374646    1.377455    0.002801
     44          1           0      -11.707069   -1.504949    0.002238
     45          1           0      -12.854663    1.339289    0.006041
     46          1           0      -13.778184   -0.286265    0.005900
 ---------------------------------------------------------------------
 Rotational constants (GHZ):           6.5706149           0.0285728           0.0284491
 Standard basis: 6-31G(d,p) (6D, 7F)
 There are   450 symmetry adapted cartesian basis functions of A   symmetry.
 There are   450 symmetry adapted basis functions of A   symmetry.
   450 basis functions,   784 primitive gaussians,   450 cartesian basis functions
    78 alpha electrons       78 beta electrons
       nuclear repulsion energy      1234.0813165408 Hartrees.
 NAtoms=   46 NActive=   46 NUniq=   46 SFac= 1.00D+00 NAtFMM=   60 NAOKFM=F Big=F
 Integral buffers will be    131072 words long.
 Raffenetti 2 integral format.
 Two-electron integral symmetry is turned on.
 One-electron integrals computed using PRISM.
 NBasis=   450 RedAO= T EigKep=  1.15D-03  NBF=   450
 NBsUse=   450 1.00D-06 EigRej= -1.00D+00 NBFU=   450
 ExpMin= 1.61D-01 ExpMax= 3.05D+03 ExpMxC= 4.57D+02 IAcc=3 IRadAn=         5 AccDes= 0.00D+00
 Harris functional with IExCor=  402 and IRadAn=       5 diagonalized for initial guess.
 HarFok:  IExCor=  402 AccDes= 0.00D+00 IRadAn=         5 IDoV= 1 UseB2=F ITyADJ=14
 ICtDFT=  3500011 ScaDFX=  1.000000  1.000000  1.000000  1.000000
 FoFCou: FMM=F IPFlag=           0 FMFlag=      100000 FMFlg1=           0
         NFxFlg=           0 DoJE=T BraDBF=F KetDBF=T FulRan=T
         wScrn=  0.000000 ICntrl=       500 IOpCl=  0 I1Cent=   200000004 NGrid=           0
         NMat0=    1 NMatS0=      1 NMatT0=    0 NMatD0=    1 NMtDS0=    0 NMtDT0=    0
 Petite list used in FoFCou.
 Requested convergence on RMS density matrix=1.00D-08 within 128 cycles.
 Requested convergence on MAX density matrix=1.00D-06.
 Requested convergence on             energy=1.00D-06.
 No special actions if energy rises.
 Integral accuracy reduced to 1.0D-05 until final iterations.
 Initial convergence to 1.0D-05 achieved.  Increase integral accuracy.
 SCF Done:  E(RB3LYP) =  -852.672707317     A.U. after   13 cycles
            NFock= 13  Conv=0.63D-08     -V/T= 2.0100

 **********************************************************************

            Population analysis using the SCF Density.

 **********************************************************************

 Orbital symmetries:
       Occupied  (A) (A) (A) (A) (A) (A) (A) (A) (A) (A) (A) (A)
                 (A) (A) (A) (A) (A) (A) (A) (A) (A) (A) (A) (A)
                 (A) (A) (A) (A) (A) (A) (A) (A) (A) (A) (A) (A)
                 (A) (A) (A) (A) (A) (A) (A) (A) (A) (A) (A) (A)
                 (A) (A) (A) (A) (A) (A) (A) (A) (A) (A) (A) (A)
                 (A) (A) (A) (A) (A) (A) (A) (A) (A) (A) (A) (A)
                 (A) (A) (A) (A) (A) (A)
       Virtual   (A) (A) (A) (A) (A) (A) (A) (A) (A) (A) (A) (A)
                 (A) (A) (A) (A) (A) (A) (A) (A) (A) (A) (A) (A)
                 (A) (A) (A) (A) (A) (A) (A) (A) (A) (A) (A) (A)
                 (A) (A) (A) (A) (A) (A) (A) (A) (A) (A) (A) (A)
                 (A) (A) (A) (A) (A) (A) (A) (A) (A) (A) (A) (A)
                 (A) (A) (A) (A) (A) (A) (A) (A) (A) (A) (A) (A)
                 (A) (A) (A) (A) (A) (A) (A) (A) (A) (A) (A) (A)
                 (A) (A) (A) (A) (A) (A) (A) (A) (A) (A) (A) (A)
                 (A) (A) (A) (A) (A) (A) (A) (A) (A) (A) (A) (A)
                 (A) (A) (A) (A) (A) (A) (A) (A) (A) (A) (A) (A)
                 (A) (A) (A) (A) (A) (A) (A) (A) (A) (A) (A) (A)
                 (A) (A) (A) (A) (A) (A) (A) (A) (A) (A) (A) (A)
                 (A) (A) (A) (A) (A) (A) (A) (A) (A) (A) (A) (A)
                 (A) (A) (A) (A) (A) (A) (A) (A) (A) (A) (A) (A)
                 (A) (A) (A) (A) (A) (A) (A) (A) (A) (A) (A) (A)
                 (A) (A) (A) (A) (A) (A) (A) (A) (A) (A) (A) (A)
                 (A) (A) (A) (A) (A) (A) (A) (A) (A) (A) (A) (A)
                 (A) (A) (A) (A) (A) (A) (A) (A) (A) (A) (A) (A)
                 (A) (A) (A) (A) (A) (A) (A) (A) (A) (A) (A) (A)
                 (A) (A) (A) (A) (A) (A) (A) (A) (A) (A) (A) (A)
                 (A) (A) (A) (A) (A) (A) (A) (A) (A) (A) (A) (A)
                 (A) (A) (A) (A) (A) (A) (A) (A) (A) (A) (A) (A)
                 (A) (A) (A) (A) (A) (A) (A) (A) (A) (A) (A) (A)
                 (A) (A) (A) (A) (A) (A) (A) (A) (A) (A) (A) (A)
                 (A) (A) (A) (A) (A) (A) (A) (A) (A) (A) (A) (A)
                 (A) (A) (A) (A) (A) (A) (A) (A) (A) (A) (A) (A)
                 (A) (A) (A) (A) (A) (A) (A) (A) (A) (A) (A) (A)
                 (A) (A) (A) (A) (A) (A) (A) (A) (A) (A) (A) (A)
                 (A) (A) (A) (A) (A) (A) (A) (A) (A) (A) (A) (A)
                 (A) (A) (A) (A) (A) (A) (A) (A) (A) (A) (A) (A)
                 (A) (A) (A) (A) (A) (A) (A) (A) (A) (A) (A) (A)
 The electronic state is 1-A.
 Alpha  occ. eigenvalues --  -10.19140 -10.19132 -10.19116 -10.19110 -10.19107
 Alpha  occ. eigenvalues --  -10.19103 -10.19097 -10.19092 -10.19088 -10.19084
 Alpha  occ. eigenvalues --  -10.19080 -10.19026 -10.19020 -10.19014 -10.19009
 Alpha  occ. eigenvalues --  -10.19005 -10.19000 -10.18996 -10.18941 -10.18929
 Alpha  occ. eigenvalues --  -10.17921 -10.17910  -0.82891  -0.82492  -0.81835
 Alpha  occ. eigenvalues --   -0.80931  -0.79788  -0.78414  -0.76824  -0.75040
 Alpha  occ. eigenvalues --   -0.73109  -0.71143  -0.69462  -0.63343  -0.61351
 Alpha  occ. eigenvalues --   -0.58896  -0.57020  -0.56696  -0.56430  -0.56133
 Alpha  occ. eigenvalues --   -0.55414  -0.54800  -0.54438  -0.54124  -0.48509
 Alpha  occ. eigenvalues --   -0.48282  -0.47162  -0.47130  -0.45708  -0.44974
 Alpha  occ. eigenvalues --   -0.44331  -0.42393  -0.41720  -0.40730  -0.39837
 Alpha  occ. eigenvalues --   -0.39381  -0.38333  -0.38260  -0.37604  -0.37443
 Alpha  occ. eigenvalues --   -0.37346  -0.36794  -0.36291  -0.35709  -0.35226
 Alpha  occ. eigenvalues --   -0.34846  -0.34714  -0.33866  -0.33794  -0.32971
 Alpha  occ. eigenvalues --   -0.32695  -0.31207  -0.29411  -0.27321  -0.24964
 Alpha  occ. eigenvalues --   -0.22398  -0.19769  -0.17488
 Alpha virt. eigenvalues --   -0.07088  -0.04663  -0.01725   0.01231   0.03944
 Alpha virt. eigenvalues --    0.06238   0.07987   0.08291   0.08879   0.09138
 Alpha virt. eigenvalues --    0.09737   0.09804   0.09937   0.09945   0.11020
 Alpha virt. eigenvalues --    0.12412   0.12619   0.12708   0.13812   0.13929
 Alpha virt. eigenvalues --    0.14284   0.14391   0.14567   0.15019   0.15249
 Alpha virt. eigenvalues --    0.15677   0.15739   0.16219   0.17016   0.17968
 Alpha virt. eigenvalues --    0.19502   0.19887   0.19900   0.20884   0.21088
 Alpha virt. eigenvalues --    0.25369   0.27568   0.30140   0.30853   0.31031
 Alpha virt. eigenvalues --    0.32350   0.32616   0.33762   0.35073   0.35511
 Alpha virt. eigenvalues --    0.36159   0.36800   0.36872   0.37665   0.38667
 Alpha virt. eigenvalues --    0.40850   0.41376   0.41757   0.42296   0.43490
 Alpha virt. eigenvalues --    0.43666   0.47640   0.48350   0.51686   0.52025
 Alpha virt. eigenvalues --    0.52196   0.52604   0.53437   0.53573   0.54526
 Alpha virt. eigenvalues --    0.55652   0.55858   0.56857   0.57212   0.57392
 Alpha virt. eigenvalues --    0.58257   0.58378   0.58728   0.58952   0.59173
 Alpha virt. eigenvalues --    0.59176   0.59276   0.59973   0.60543   0.60628
 Alpha virt. eigenvalues --    0.61163   0.61302   0.61630   0.63163   0.63281
 Alpha virt. eigenvalues --    0.63805   0.63807   0.65025   0.65087   0.66235
 Alpha virt. eigenvalues --    0.66700   0.66839   0.67429   0.68401   0.69709
 Alpha virt. eigenvalues --    0.69896   0.70633   0.70646   0.73537   0.73942
 Alpha virt. eigenvalues --    0.76042   0.76162   0.78623   0.78933   0.79640
 Alpha virt. eigenvalues --    0.80783   0.82209   0.83311   0.83785   0.84520
 Alpha virt. eigenvalues --    0.84664   0.84782   0.85193   0.85706   0.86231
 Alpha virt. eigenvalues --    0.86285   0.86683   0.87004   0.87372   0.87679
 Alpha virt. eigenvalues --    0.87937   0.88031   0.89243   0.89891   0.91199
 Alpha virt. eigenvalues --    0.91249   0.91861   0.92246   0.92692   0.93888
 Alpha virt. eigenvalues --    0.95105   0.96279   0.98942   0.99565   1.02756
 Alpha virt. eigenvalues --    1.02804   1.04138   1.04225   1.05557   1.06029
 Alpha virt. eigenvalues --    1.06038   1.06412   1.07863   1.08973   1.10091
 Alpha virt. eigenvalues --    1.10199   1.11334   1.13870   1.15419   1.16329
 Alpha virt. eigenvalues --    1.19206   1.20522   1.23442   1.26084   1.27117
 Alpha virt. eigenvalues --    1.29545   1.29584   1.29717   1.30315   1.30395
 Alpha virt. eigenvalues --    1.30832   1.31297   1.31421   1.31887   1.32244
 Alpha virt. eigenvalues --    1.32482   1.33137   1.33499   1.33520   1.33543
 Alpha virt. eigenvalues --    1.34315   1.34799   1.35974   1.37005   1.38280
 Alpha virt. eigenvalues --    1.39698   1.40938   1.41234   1.42880   1.44615
 Alpha virt. eigenvalues --    1.46378   1.47645   1.48081   1.49609   1.50679
 Alpha virt. eigenvalues --    1.50842   1.51309   1.51668   1.52059   1.53601
 Alpha virt. eigenvalues --    1.53905   1.76343   1.76463   1.76566   1.76629
 Alpha virt. eigenvalues --    1.76800   1.76873   1.77456   1.77542   1.78421
 Alpha virt. eigenvalues --    1.78425   1.82519   1.84222   1.86246   1.86271
 Alpha virt. eigenvalues --    1.86883   1.90258   1.91572   1.92189   1.92467
 Alpha virt. eigenvalues --    1.93054   1.93384   1.94062   1.94311   1.94915
 Alpha virt. eigenvalues --    1.95076   1.96362   1.96933   1.97992   1.98248
 Alpha virt. eigenvalues --    1.98352   2.01778   2.03185   2.03971   2.05233
 Alpha virt. eigenvalues --    2.06190   2.08233   2.08766   2.08801   2.09888
 Alpha virt. eigenvalues --    2.10600   2.11664   2.12991   2.14171   2.16721
 Alpha virt. eigenvalues --    2.17450   2.17609   2.18185   2.18360   2.19911
 Alpha virt. eigenvalues --    2.20040   2.21340   2.22063   2.23260   2.23816
 Alpha virt. eigenvalues --    2.23908   2.24182   2.26388   2.28086   2.28696
 Alpha virt. eigenvalues --    2.31112   2.33590   2.35309   2.35932   2.37618
 Alpha virt. eigenvalues --    2.41593   2.41610   2.43027   2.44614   2.44888
 Alpha virt. eigenvalues --    2.46146   2.47330   2.48159   2.48705   2.48727
 Alpha virt. eigenvalues --    2.48779   2.49909   2.50323   2.50579   2.51616
 Alpha virt. eigenvalues --    2.51871   2.52227   2.53371   2.53735   2.54056
 Alpha virt. eigenvalues --    2.54120   2.55264   2.56166   2.57115   2.58509
 Alpha virt. eigenvalues --    2.58971   2.59886   2.60388   2.60605   2.61812
 Alpha virt. eigenvalues --    2.63661   2.64892   2.65040   2.65276   2.66199
 Alpha virt. eigenvalues --    2.67453   2.67672   2.68658   2.69394   2.70198
 Alpha virt. eigenvalues --    2.70381   2.70555   2.70837   2.71226   2.72093
 Alpha virt. eigenvalues --    2.73430   2.75911   2.76126   2.77412   2.81093
 Alpha virt. eigenvalues --    2.81863   2.84534   2.85617   2.85875   2.88197
 Alpha virt. eigenvalues --    2.88837   2.91164   2.91465   2.91496   2.92506
 Alpha virt. eigenvalues --    2.92627   2.93166   2.93794   2.95620   2.95871
 Alpha virt. eigenvalues --    2.97724   2.97763   2.99218   2.99312   3.00033
 Alpha virt. eigenvalues --    3.00155   3.28033   3.28041   3.35228   3.35579
 Alpha virt. eigenvalues --    3.36231   3.37248   3.38599   3.40155   3.41907
 Alpha virt. eigenvalues --    3.44029   3.46704   3.49939   3.51902   3.53429
 Alpha virt. eigenvalues --    3.55054   3.59168   3.59380   3.62616   3.63449
 Alpha virt. eigenvalues --    3.65696   3.66912   3.67780   3.71021   3.71103
 Alpha virt. eigenvalues --    4.13717   4.13788   4.13917   4.14058   4.14297
 Alpha virt. eigenvalues --    4.14748   4.15507   4.16663   4.18302   4.20482
 Alpha virt. eigenvalues --    4.24871   4.26558   4.31053   4.35912   4.41334
 Alpha virt. eigenvalues --    4.47181   4.53245   4.59231   4.64792   4.69577
 Alpha virt. eigenvalues --    4.73255   4.75576
          Condensed to atoms (all electrons):
               1          2          3          4          5          6
     1  C    4.965688   0.618716  -0.031478   0.002702  -0.000276   0.000005
     2  C    0.618716   4.739944   0.421048  -0.019962   0.004045  -0.000268
     3  C   -0.031478   0.421048   4.861628   0.577773  -0.018417   0.002515
     4  C    0.002702  -0.019962   0.577773   4.868479   0.393021  -0.016561
     5  C   -0.000276   0.004045  -0.018417   0.393021   4.887784   0.563556
     6  C    0.000005  -0.000268   0.002515  -0.016561   0.563556   4.880838
     7  C   -0.000000   0.000002  -0.000255   0.003646  -0.017305   0.396259
     8  C   -0.000000  -0.000000   0.000004  -0.000256   0.002551  -0.017369
     9  C    0.000000   0.000000  -0.000000   0.000002  -0.000256   0.003673
    10  C    0.000000   0.000000  -0.000000  -0.000000   0.000004  -0.000256
    11  C   -0.000000   0.000000   0.000000   0.000000  -0.000000   0.000002
    12  C    0.000000  -0.000000   0.000000   0.000000  -0.000000  -0.000000
    13  C    0.000000   0.000000  -0.000000   0.000000   0.000000   0.000000
    14  C    0.000000   0.000000   0.000000  -0.000000   0.000000   0.000000
    15  C    0.000000   0.000000   0.000000   0.000000  -0.000000   0.000000
    16  C    0.000000   0.000000   0.000000   0.000000   0.000000  -0.000000
    17  C    0.000000   0.000000   0.000000   0.000000   0.000000   0.000000
    18  C    0.000000   0.000000   0.000000   0.000000   0.000000   0.000000
    19  C    0.000000   0.000000   0.000000   0.000000   0.000000   0.000000
    20  C    0.000000   0.000000   0.000000   0.000000   0.000000   0.000000
    21  C    0.000000   0.000000   0.000000   0.000000   0.000000   0.000000
    22  C    0.000000   0.000000   0.000000   0.000000   0.000000   0.000000
    23  H    0.369484  -0.020432   0.004036  -0.000224   0.000003  -0.000000
    24  H    0.382754  -0.035903  -0.012743   0.000562  -0.000000  -0.000000
    25  H   -0.051002   0.381936  -0.047478  -0.005761   0.000269  -0.000005
    26  H   -0.005166  -0.046704   0.379511  -0.051029  -0.009569   0.000549
    27  H    0.000487  -0.009071  -0.053606   0.381315  -0.048025  -0.005259
    28  H   -0.000003   0.000238  -0.005237  -0.048034   0.381104  -0.052692
    29  H    0.000000  -0.000004   0.000532  -0.009227  -0.052957   0.380880
    30  H    0.000000  -0.000000  -0.000004   0.000249  -0.005288  -0.047926
    31  H    0.000000   0.000000  -0.000000  -0.000004   0.000540  -0.009291
    32  H   -0.000000  -0.000000   0.000000  -0.000000  -0.000004   0.000251
    33  H    0.000000  -0.000000   0.000000   0.000000  -0.000000  -0.000004
    34  H   -0.000000   0.000000   0.000000  -0.000000   0.000000  -0.000000
    35  H    0.000000  -0.000000   0.000000  -0.000000   0.000000   0.000000
    36  H    0.000000   0.000000  -0.000000   0.000000   0.000000  -0.000000
    37  H    0.000000   0.000000   0.000000  -0.000000   0.000000  -0.000000
    38  H    0.000000   0.000000   0.000000   0.000000  -0.000000   0.000000
    39  H    0.000000   0.000000   0.000000   0.000000   0.000000  -0.000000
    40  H    0.000000   0.000000   0.000000   0.000000   0.000000   0.000000
    41  H    0.000000   0.000000   0.000000   0.000000   0.000000   0.000000
    42  H    0.000000   0.000000   0.000000   0.000000   0.000000   0.000000
    43  H    0.000000   0.000000   0.000000   0.000000   0.000000   0.000000
    44  H    0.000000   0.000000   0.000000   0.000000   0.000000   0.000000
    45  H    0.000000   0.000000   0.000000   0.000000   0.000000   0.000000
    46  H    0.000000   0.000000   0.000000   0.000000   0.000000   0.000000
               7          8          9         10         11         12
     1  C   -0.000000  -0.000000   0.000000   0.000000  -0.000000   0.000000
     2  C    0.000002  -0.000000   0.000000   0.000000   0.000000  -0.000000
     3  C   -0.000255   0.000004  -0.000000  -0.000000   0.000000   0.000000
     4  C    0.003646  -0.000256   0.000002  -0.000000   0.000000   0.000000
     5  C   -0.017305   0.002551  -0.000256   0.000004  -0.000000  -0.000000
     6  C    0.396259  -0.017369   0.003673  -0.000256   0.000002  -0.000000
     7  C    4.882142   0.564175  -0.017475   0.002569  -0.000255   0.000004
     8  C    0.564175   4.880769   0.397439  -0.017514   0.003670  -0.000256
     9  C   -0.017475   0.397439   4.881277   0.563895  -0.017439   0.002577
    10  C    0.002569  -0.017514   0.563895   4.881112   0.397765  -0.017617
    11  C   -0.000255   0.003670  -0.017439   0.397765   4.880877   0.563828
    12  C    0.000004  -0.000256   0.002577  -0.017617   0.563828   4.881422
    13  C   -0.000000   0.000002  -0.000255   0.003670  -0.017372   0.397764
    14  C   -0.000000  -0.000000   0.000004  -0.000256   0.002576  -0.017675
    15  C    0.000000   0.000000  -0.000000   0.000002  -0.000256   0.003671
    16  C    0.000000   0.000000  -0.000000  -0.000000   0.000004  -0.000256
    17  C   -0.000000   0.000000   0.000000   0.000000  -0.000000   0.000002
    18  C    0.000000  -0.000000   0.000000   0.000000  -0.000000  -0.000000
    19  C    0.000000   0.000000  -0.000000   0.000000   0.000000   0.000000
    20  C    0.000000   0.000000   0.000000  -0.000000   0.000000   0.000000
    21  C    0.000000   0.000000   0.000000   0.000000  -0.000000   0.000000
    22  C    0.000000   0.000000   0.000000   0.000000   0.000000  -0.000000
    23  H    0.000000  -0.000000   0.000000   0.000000   0.000000   0.000000
    24  H    0.000000   0.000000  -0.000000   0.000000  -0.000000   0.000000
    25  H   -0.000000   0.000000  -0.000000   0.000000   0.000000  -0.000000
    26  H   -0.000004  -0.000000   0.000000   0.000000  -0.000000   0.000000
    27  H    0.000252  -0.000004  -0.000000   0.000000  -0.000000   0.000000
    28  H   -0.009296   0.000542  -0.000004  -0.000000   0.000000   0.000000
    29  H   -0.047907  -0.005287   0.000250  -0.000004  -0.000000   0.000000
    30  H    0.380897  -0.052754  -0.009305   0.000542  -0.000004  -0.000000
    31  H   -0.052787   0.380787  -0.047888  -0.005289   0.000249  -0.000004
    32  H   -0.005299  -0.047935   0.380851  -0.052793  -0.009318   0.000543
    33  H    0.000539  -0.009289  -0.052756   0.380778  -0.047871  -0.005287
    34  H   -0.000004   0.000251  -0.005307  -0.047953   0.380839  -0.052826
    35  H   -0.000000  -0.000004   0.000538  -0.009280  -0.052729   0.380777
    36  H    0.000000  -0.000000  -0.000004   0.000252  -0.005311  -0.047967
    37  H    0.000000   0.000000  -0.000000  -0.000004   0.000538  -0.009274
    38  H    0.000000  -0.000000   0.000000  -0.000000  -0.000004   0.000252
    39  H    0.000000  -0.000000   0.000000   0.000000  -0.000000  -0.000004
    40  H   -0.000000   0.000000   0.000000  -0.000000   0.000000  -0.000000
    41  H    0.000000  -0.000000   0.000000  -0.000000   0.000000   0.000000
    42  H    0.000000   0.000000  -0.000000   0.000000   0.000000  -0.000000
    43  H    0.000000   0.000000   0.000000  -0.000000   0.000000  -0.000000
    44  H    0.000000   0.000000   0.000000   0.000000  -0.000000   0.000000
    45  H    0.000000   0.000000   0.000000   0.000000   0.000000  -0.000000
    46  H    0.000000   0.000000   0.000000   0.000000   0.000000   0.000000
              13         14         15         16         17         18
     1  C    0.000000   0.000000   0.000000   0.000000   0.000000   0.000000
     2  C    0.000000   0.000000   0.000000   0.000000   0.000000   0.000000
     3  C   -0.000000   0.000000   0.000000   0.000000   0.000000   0.000000
     4  C    0.000000  -0.000000   0.000000   0.000000   0.000000   0.000000
     5  C    0.000000   0.000000  -0.000000   0.000000   0.000000   0.000000
     6  C    0.000000   0.000000   0.000000  -0.000000   0.000000   0.000000
     7  C   -0.000000  -0.000000   0.000000   0.000000  -0.000000   0.000000
     8  C    0.000002  -0.000000   0.000000   0.000000   0.000000  -0.000000
     9  C   -0.000255   0.000004  -0.000000  -0.000000   0.000000   0.000000
    10  C    0.003670  -0.000256   0.000002  -0.000000   0.000000   0.000000
    11  C   -0.017372   0.002576  -0.000256   0.000004  -0.000000  -0.000000
    12  C    0.397764  -0.017675   0.003671  -0.000256   0.000002  -0.000000
    13  C    4.880596   0.563905  -0.017290   0.002566  -0.000256   0.000004
    14  C    0.563905   4.881786   0.397435  -0.017676   0.003676  -0.000256
    15  C   -0.017290   0.397435   4.880342   0.564193  -0.017190   0.002545
    16  C    0.002566  -0.017676   0.564193   4.882556   0.396255  -0.017450
    17  C   -0.000256   0.003676  -0.017190   0.396255   4.880541   0.563578
    18  C    0.000004  -0.000256   0.002545  -0.017450   0.563578   4.888073
    19  C   -0.000000   0.000002  -0.000256   0.003650  -0.016443   0.393011
    20  C   -0.000000  -0.000000   0.000004  -0.000255   0.002510  -0.018497
    21  C    0.000000   0.000000  -0.000000   0.000002  -0.000268   0.004048
    22  C    0.000000   0.000000  -0.000000  -0.000000   0.000005  -0.000276
    23  H    0.000000   0.000000   0.000000   0.000000   0.000000   0.000000
    24  H    0.000000   0.000000   0.000000   0.000000   0.000000   0.000000
    25  H    0.000000   0.000000   0.000000   0.000000   0.000000   0.000000
    26  H   -0.000000   0.000000   0.000000   0.000000   0.000000   0.000000
    27  H    0.000000  -0.000000   0.000000   0.000000   0.000000   0.000000
    28  H   -0.000000   0.000000  -0.000000   0.000000   0.000000   0.000000
    29  H   -0.000000   0.000000   0.000000  -0.000000   0.000000   0.000000
    30  H    0.000000   0.000000  -0.000000   0.000000  -0.000000   0.000000
    31  H   -0.000000   0.000000  -0.000000   0.000000   0.000000  -0.000000
    32  H   -0.000004  -0.000000   0.000000   0.000000  -0.000000   0.000000
    33  H    0.000248  -0.000004  -0.000000   0.000000  -0.000000   0.000000
    34  H   -0.009330   0.000544  -0.000004  -0.000000   0.000000   0.000000
    35  H   -0.047855  -0.005282   0.000247  -0.000004  -0.000000   0.000000
    36  H    0.380835  -0.052848  -0.009339   0.000545  -0.000004  -0.000000
    37  H   -0.052704   0.380791  -0.047849  -0.005276   0.000247  -0.000004
    38  H   -0.005309  -0.047971   0.380830  -0.052865  -0.009335   0.000545
    39  H    0.000538  -0.009273  -0.052683   0.380847  -0.047861  -0.005269
    40  H   -0.000004   0.000253  -0.005301  -0.047967   0.380905  -0.053012
    41  H   -0.000000  -0.000004   0.000539  -0.009276  -0.052646   0.381071
    42  H    0.000000  -0.000000  -0.000004   0.000253  -0.005267  -0.048058
    43  H    0.000000   0.000000  -0.000000  -0.000004   0.000548  -0.009562
    44  H    0.000000  -0.000000   0.000000  -0.000000  -0.000005   0.000269
    45  H    0.000000  -0.000000   0.000000   0.000000  -0.000000  -0.000000
    46  H    0.000000   0.000000  -0.000000   0.000000  -0.000000   0.000003
              19         20         21         22         23         24
     1  C    0.000000   0.000000   0.000000   0.000000   0.369484   0.382754
     2  C    0.000000   0.000000   0.000000   0.000000  -0.020432  -0.035903
     3  C    0.000000   0.000000   0.000000   0.000000   0.004036  -0.012743
     4  C    0.000000   0.000000   0.000000   0.000000  -0.000224   0.000562
     5  C    0.000000   0.000000   0.000000   0.000000   0.000003  -0.000000
     6  C    0.000000   0.000000   0.000000   0.000000  -0.000000  -0.000000
     7  C    0.000000   0.000000   0.000000   0.000000   0.000000   0.000000
     8  C    0.000000   0.000000   0.000000   0.000000  -0.000000   0.000000
     9  C   -0.000000   0.000000   0.000000   0.000000   0.000000  -0.000000
    10  C    0.000000  -0.000000   0.000000   0.000000   0.000000   0.000000
    11  C    0.000000   0.000000  -0.000000   0.000000   0.000000  -0.000000
    12  C    0.000000   0.000000   0.000000  -0.000000   0.000000   0.000000
    13  C   -0.000000  -0.000000   0.000000   0.000000   0.000000   0.000000
    14  C    0.000002  -0.000000   0.000000   0.000000   0.000000   0.000000
    15  C   -0.000256   0.000004  -0.000000  -0.000000   0.000000   0.000000
    16  C    0.003650  -0.000255   0.000002  -0.000000   0.000000   0.000000
    17  C   -0.016443   0.002510  -0.000268   0.000005   0.000000   0.000000
    18  C    0.393011  -0.018497   0.004048  -0.000276   0.000000   0.000000
    19  C    4.868329   0.577798  -0.019904   0.002695   0.000000   0.000000
    20  C    0.577798   4.861770   0.421045  -0.031501   0.000000   0.000000
    21  C   -0.019904   0.421045   4.739877   0.618737   0.000000   0.000000
    22  C    0.002695  -0.031501   0.618737   4.965764   0.000000   0.000000
    23  H    0.000000   0.000000   0.000000   0.000000   0.602217  -0.042400
    24  H    0.000000   0.000000   0.000000   0.000000  -0.042400   0.601604
    25  H    0.000000   0.000000   0.000000   0.000000  -0.008103   0.005982
    26  H    0.000000   0.000000   0.000000   0.000000   0.000025   0.004585
    27  H    0.000000   0.000000   0.000000   0.000000  -0.000008   0.000014
    28  H    0.000000   0.000000   0.000000   0.000000   0.000000   0.000001
    29  H    0.000000   0.000000   0.000000   0.000000  -0.000000  -0.000000
    30  H    0.000000   0.000000   0.000000   0.000000   0.000000  -0.000000
    31  H    0.000000   0.000000   0.000000   0.000000  -0.000000   0.000000
    32  H   -0.000000   0.000000   0.000000   0.000000   0.000000   0.000000
    33  H    0.000000  -0.000000   0.000000   0.000000  -0.000000   0.000000
    34  H   -0.000000   0.000000  -0.000000   0.000000   0.000000   0.000000
    35  H   -0.000000   0.000000   0.000000  -0.000000   0.000000   0.000000
    36  H    0.000000   0.000000  -0.000000   0.000000   0.000000   0.000000
    37  H   -0.000000   0.000000  -0.000000  -0.000000   0.000000   0.000000
    38  H   -0.000004  -0.000000   0.000000   0.000000   0.000000   0.000000
    39  H    0.000246  -0.000004  -0.000000   0.000000   0.000000   0.000000
    40  H   -0.009260   0.000536  -0.000004   0.000000   0.000000   0.000000
    41  H   -0.047997  -0.005225   0.000236  -0.000003   0.000000   0.000000
    42  H    0.381322  -0.053637  -0.009091   0.000488   0.000000   0.000000
    43  H   -0.051010   0.379496  -0.046694  -0.005159   0.000000   0.000000
    44  H   -0.005764  -0.047486   0.381931  -0.051013   0.000000   0.000000
    45  H    0.000563  -0.012742  -0.035897   0.382750   0.000000   0.000000
    46  H   -0.000224   0.004038  -0.020426   0.369475   0.000000   0.000000
              25         26         27         28         29         30
     1  C   -0.051002  -0.005166   0.000487  -0.000003   0.000000   0.000000
     2  C    0.381936  -0.046704  -0.009071   0.000238  -0.000004  -0.000000
     3  C   -0.047478   0.379511  -0.053606  -0.005237   0.000532  -0.000004
     4  C   -0.005761  -0.051029   0.381315  -0.048034  -0.009227   0.000249
     5  C    0.000269  -0.009569  -0.048025   0.381104  -0.052957  -0.005288
     6  C   -0.000005   0.000549  -0.005259  -0.052692   0.380880  -0.047926
     7  C   -0.000000  -0.000004   0.000252  -0.009296  -0.047907   0.380897
     8  C    0.000000  -0.000000  -0.000004   0.000542  -0.005287  -0.052754
     9  C   -0.000000   0.000000  -0.000000  -0.000004   0.000250  -0.009305
    10  C    0.000000   0.000000   0.000000  -0.000000  -0.000004   0.000542
    11  C    0.000000  -0.000000  -0.000000   0.000000  -0.000000  -0.000004
    12  C   -0.000000   0.000000   0.000000   0.000000   0.000000  -0.000000
    13  C    0.000000  -0.000000   0.000000  -0.000000  -0.000000   0.000000
    14  C    0.000000   0.000000  -0.000000   0.000000   0.000000   0.000000
    15  C    0.000000   0.000000   0.000000  -0.000000   0.000000  -0.000000
    16  C    0.000000   0.000000   0.000000   0.000000  -0.000000   0.000000
    17  C    0.000000   0.000000   0.000000   0.000000   0.000000  -0.000000
    18  C    0.000000   0.000000   0.000000   0.000000   0.000000   0.000000
    19  C    0.000000   0.000000   0.000000   0.000000   0.000000   0.000000
    20  C    0.000000   0.000000   0.000000   0.000000   0.000000   0.000000
    21  C    0.000000   0.000000   0.000000   0.000000   0.000000   0.000000
    22  C    0.000000   0.000000   0.000000   0.000000   0.000000   0.000000
    23  H   -0.008103   0.000025  -0.000008   0.000000  -0.000000   0.000000
    24  H    0.005982   0.004585   0.000014   0.000001  -0.000000  -0.000000
    25  H    0.631887   0.004339   0.004192   0.000005   0.000001  -0.000000
    26  H    0.004339   0.631701   0.006062   0.004053   0.000014   0.000001
    27  H    0.004192   0.006062   0.634318   0.004271   0.004069   0.000005
    28  H    0.000005   0.004053   0.004271   0.634318   0.006068   0.004054
    29  H    0.000001   0.000014   0.004069   0.006068   0.634977   0.004275
    30  H   -0.000000   0.000001   0.000005   0.004054   0.004275   0.634900
    31  H   -0.000000  -0.000000   0.000001   0.000014   0.004058   0.006075
    32  H    0.000000  -0.000000  -0.000000   0.000001   0.000005   0.004062
    33  H    0.000000   0.000000  -0.000000  -0.000000   0.000001   0.000014
    34  H    0.000000   0.000000   0.000000  -0.000000  -0.000000   0.000001
    35  H    0.000000   0.000000   0.000000   0.000000  -0.000000  -0.000000
    36  H    0.000000   0.000000   0.000000   0.000000   0.000000  -0.000000
    37  H    0.000000   0.000000   0.000000   0.000000   0.000000   0.000000
    38  H    0.000000   0.000000   0.000000   0.000000   0.000000   0.000000
    39  H    0.000000   0.000000   0.000000   0.000000   0.000000   0.000000
    40  H    0.000000   0.000000   0.000000   0.000000   0.000000   0.000000
    41  H    0.000000   0.000000   0.000000   0.000000   0.000000   0.000000
    42  H    0.000000   0.000000   0.000000   0.000000   0.000000   0.000000
    43  H    0.000000   0.000000   0.000000   0.000000   0.000000   0.000000
    44  H    0.000000   0.000000   0.000000   0.000000   0.000000   0.000000
    45  H    0.000000   0.000000   0.000000   0.000000   0.000000   0.000000
    46  H    0.000000   0.000000   0.000000   0.000000   0.000000   0.000000
              31         32         33         34         35         36
     1  C    0.000000  -0.000000   0.000000  -0.000000   0.000000   0.000000
     2  C    0.000000  -0.000000  -0.000000   0.000000  -0.000000   0.000000
     3  C   -0.000000   0.000000   0.000000   0.000000   0.000000  -0.000000
     4  C   -0.000004  -0.000000   0.000000  -0.000000  -0.000000   0.000000
     5  C    0.000540  -0.000004  -0.000000   0.000000   0.000000   0.000000
     6  C   -0.009291   0.000251  -0.000004  -0.000000   0.000000  -0.000000
     7  C   -0.052787  -0.005299   0.000539  -0.000004  -0.000000   0.000000
     8  C    0.380787  -0.047935  -0.009289   0.000251  -0.000004  -0.000000
     9  C   -0.047888   0.380851  -0.052756  -0.005307   0.000538  -0.000004
    10  C   -0.005289  -0.052793   0.380778  -0.047953  -0.009280   0.000252
    11  C    0.000249  -0.009318  -0.047871   0.380839  -0.052729  -0.005311
    12  C   -0.000004   0.000543  -0.005287  -0.052826   0.380777  -0.047967
    13  C   -0.000000  -0.000004   0.000248  -0.009330  -0.047855   0.380835
    14  C    0.000000  -0.000000  -0.000004   0.000544  -0.005282  -0.052848
    15  C   -0.000000   0.000000  -0.000000  -0.000004   0.000247  -0.009339
    16  C    0.000000   0.000000   0.000000  -0.000000  -0.000004   0.000545
    17  C    0.000000  -0.000000  -0.000000   0.000000  -0.000000  -0.000004
    18  C   -0.000000   0.000000   0.000000   0.000000   0.000000  -0.000000
    19  C    0.000000  -0.000000   0.000000  -0.000000  -0.000000   0.000000
    20  C    0.000000   0.000000  -0.000000   0.000000   0.000000   0.000000
    21  C    0.000000   0.000000   0.000000  -0.000000   0.000000  -0.000000
    22  C    0.000000   0.000000   0.000000   0.000000  -0.000000   0.000000
    23  H   -0.000000   0.000000  -0.000000   0.000000   0.000000   0.000000
    24  H    0.000000   0.000000   0.000000   0.000000   0.000000   0.000000
    25  H   -0.000000   0.000000   0.000000   0.000000   0.000000   0.000000
    26  H   -0.000000  -0.000000   0.000000   0.000000   0.000000   0.000000
    27  H    0.000001  -0.000000  -0.000000   0.000000   0.000000   0.000000
    28  H    0.000014   0.000001  -0.000000  -0.000000   0.000000   0.000000
    29  H    0.004058   0.000005   0.000001  -0.000000  -0.000000   0.000000
    30  H    0.006075   0.004062   0.000014   0.000001  -0.000000  -0.000000
    31  H    0.635095   0.004276   0.004053   0.000005   0.000001  -0.000000
    32  H    0.004276   0.635133   0.006077   0.004069   0.000014   0.000001
    33  H    0.004053   0.006077   0.635103   0.004277   0.004046   0.000005
    34  H    0.000005   0.004069   0.004277   0.635255   0.006078   0.004076
    35  H    0.000001   0.000014   0.004046   0.006078   0.635061   0.004276
    36  H   -0.000000   0.000001   0.000005   0.004076   0.004276   0.635312
    37  H   -0.000000  -0.000000   0.000001   0.000014   0.004040   0.006078
    38  H    0.000000  -0.000000  -0.000000   0.000001   0.000005   0.004080
    39  H    0.000000   0.000000  -0.000000  -0.000000   0.000001   0.000014
    40  H    0.000000   0.000000   0.000000  -0.000000  -0.000000   0.000001
    41  H    0.000000   0.000000   0.000000   0.000000  -0.000000  -0.000000
    42  H    0.000000   0.000000   0.000000   0.000000   0.000000  -0.000000
    43  H    0.000000   0.000000   0.000000   0.000000   0.000000   0.000000
    44  H    0.000000   0.000000   0.000000   0.000000   0.000000   0.000000
    45  H    0.000000   0.000000   0.000000   0.000000   0.000000   0.000000
    46  H    0.000000   0.000000   0.000000   0.000000   0.000000  -0.000000
[...]
 535,0.00000369,0.00012951,-0.00005754,-0.00001891,0.00024436,-0.000096
 40,0.00027150,0.00410249,-0.00220193,-0.01949617,0.02727258,0.00000037
 ,-0.00000009,0.,-0.00000044,0.00000027,-0.00000001,0.00000064,-0.00000
 019,0.,-0.00000095,0.00000027,-0.00000001,0.00000135,-0.00000012,0.,-0
 .00000189,0.00000028,0.,0.00000257,-0.00000004,-0.00000002,-0.00000349
 ,0.00000029,0.,0.00000466,0.00000009,-0.00000004,-0.00000622,0.0000002
 4,0.,0.00000828,0.00000030,-0.00000007,-0.00001053,-0.00000011,0.00000
 020,0.00001428,0.00000101,-0.00000020,-0.00001675,-0.00000263,-0.00000
 032,0.00004008,0.00000795,-0.00000051,-0.00000678,0.00006869,-0.000002
 74,-0.00008567,0.00021191,-0.00001297,0.00140837,-0.00189081,0.0000673
 8,-0.00042094,-0.03076270,0.00190163,-0.06214011,-0.03000410,0.0019712
 6,0.00489955,0.02629311,-0.00160822,0.00164126,0.00100800,-0.00008183,
 0.00000003,0.,0.,0.,0.00000004,0.,0.,0.,0.,0.00000002,0.00000004,0.,-0
 .00000003,0.00000003,0.,0.00000004,0.00000006,0.,-0.00000005,0.0000000
 7,0.,0.00000008,0.00000009,0.,-0.00000010,0.00000016,0.,0.00000017,0.0
 0000017,0.,-0.00000024,0.00000036,-0.00000001,0.00000038,0.00000038,-0
 .00000001,-0.00000056,0.00000092,-0.00000004,0.00000139,0.00000120,-0.
 00000013,-0.00000358,0.00000307,-0.00000014,0.00001263,0.00000413,-0.0
 0000021,-0.00005347,0.00003666,-0.00000184,0.00012937,0.00023527,-0.00
 001285,-0.00028845,0.00099267,-0.00005664,-0.00466289,-0.00169931,0.00
 019284,0.06352276,0.00000145,-0.00000158,0.00000006,0.00000003,0.00000
 261,-0.00000017,-0.00000095,-0.00000285,0.00000017,0.00000194,0.000002
 48,-0.00000017,-0.00000310,-0.00000287,0.00000018,0.00000446,0.0000022
 4,-0.00000020,-0.00000647,-0.00000308,0.00000021,0.00000878,0.00000168
 ,-0.00000013,-0.00001250,-0.00000344,0.00000023,0.00001670,0.00000041,
 -0.00000044,-0.00002424,-0.00000407,0.00000039,0.00003246,-0.00000258,
 0.00000115,-0.00005060,-0.00000514,0.00000020,0.00006566,-0.00001540,-
 0.00000495,-0.00011558,-0.00000294,0.00000313,0.00009628,-0.00004555,0
 .00001504,-0.00035516,0.00048091,-0.00003313,0.00215697,0.00080622,-0.
 00042034,-0.00058383,-0.01109772,0.00097510,-0.03140001,-0.32076794,0.
 01730503,-0.00400675,-0.01616204,0.00118800,-0.00122201,0.00113930,-0.
 00015468,0.00000034,0.,0.,-0.00000006,0.00000016,0.,-0.00000003,-0.000
 00030,0.00000003,0.00000004,0.00000012,0.,-0.00000002,-0.00000032,0.00
 000003,0.00000005,0.00000014,0.,-0.00000002,-0.00000030,0.00000004,0.0
 0000009,0.00000021,0.00000001,-0.00000005,-0.00000023,0.00000005,0.000
 00018,0.00000036,0.,-0.00000011,0.,0.00000006,0.00000042,0.00000073,0.
 00000008,-0.00000037,0.00000064,0.00000006,0.00000131,0.00000168,-0.00
 000059,-0.00000111,0.00000277,0.00000006,0.00000448,0.00000315,0.00000
 090,-0.00001945,0.00000877,-0.00000006,0.00023622,0.00000176,0.0000196
 1,-0.00088979,0.00063694,-0.00001668,-0.00166440,0.00031462,0.00054732
 ,0.03421912,0.34439257,-0.00000009,0.00000007,-0.00000037,0.,-0.000000
 17,-0.00000010,0.00000005,0.00000016,-0.00000021,-0.00000011,-0.000000
 16,-0.00000015,0.00000018,0.00000016,-0.00000032,-0.00000026,-0.000000
 17,-0.00000051,0.00000037,0.00000016,-0.00000038,-0.00000051,-0.000000
 08,0.00000044,0.00000072,0.00000015,-0.00000094,-0.00000101,-0.0000003
 3,-0.00000500,0.00000142,0.00000023,-0.00000020,-0.00000177,0.00000136
 ,0.00001976,0.00000293,-0.00000014,-0.00000733,-0.00000446,-0.00000451
 ,-0.00008969,0.00000699,0.00000233,0.00003608,-0.00000442,0.00001522,0
 .00021165,0.00002144,-0.00003682,-0.00010094,-0.00017829,-0.00039405,-
 0.00586365,0.00007002,0.00117103,0.00483473,0.00205598,0.01729597,-0.0
 4006159,0.00023074,0.00099128,0.00292192,0.00005351,-0.00016916,-0.001
 53012,-0.00000002,0.,0.00000014,0.,0.,0.00000016,0.,0.00000003,0.00000
 015,0.,0.,0.00000019,0.,0.00000003,0.00000022,0.,0.,0.00000026,0.,0.00
 000004,0.00000033,0.,0.00000001,0.00000046,0.,0.00000004,0.00000052,0.
 ,0.,0.00000043,0.00000001,0.00000006,0.00000098,-0.00000001,0.00000008
 ,0.00000202,0.00000004,0.00000005,0.00000163,-0.00000014,-0.00000059,-
 0.00000791,0.00000011,0.00000003,0.00000367,-0.00000023,0.00000090,0.0
 0001843,0.00000156,-0.00000042,0.00000574,-0.00001290,0.00001962,0.000
 34906,0.00005761,-0.00002890,0.00026833,0.00019073,0.00054754,0.009120
 11,-0.00232688,-0.01960629,0.02621267,0.00000111,-0.00000096,0.0000000
 5,-0.00000023,0.00000189,-0.00000011,-0.00000018,-0.00000177,0.0000001
 1,0.00000065,0.00000188,-0.00000012,-0.00000108,-0.00000171,0.00000011
 ,0.00000162,0.00000184,-0.00000012,-0.00000233,-0.00000169,0.00000012,
 0.00000317,0.00000167,-0.00000012,-0.00000444,-0.00000159,0.00000012,0
 .00000585,0.00000123,-0.00000012,-0.00000819,-0.00000126,0.00000012,0.
 00001074,0.00000018,-0.00000008,-0.00001472,-0.00000031,0.00000011,0.0
 0002030,-0.00000238,-0.00000002,-0.00002668,0.00000104,0.00000004,0.00
 006002,-0.00001102,0.00000038,-0.00005665,-0.00008869,0.00000561,-0.00
 007437,-0.00008464,0.00000431,0.00164351,0.00142996,-0.00010814,0.0046
 5673,0.02637416,-0.00161133,-0.06190334,-0.03149682,0.00204265,-0.0013
 5530,-0.03193989,0.00198112,0.00000025,-0.00000002,0.,-0.00000006,0.00
 000004,0.,-0.00000003,-0.00000029,0.00000002,0.,-0.00000003,0.,0.,-0.0
 0000034,0.00000002,-0.00000002,-0.00000006,0.,0.00000001,-0.00000039,0
 .00000003,-0.00000004,-0.00000009,0.,0.00000003,-0.00000044,0.00000003
 ,-0.00000008,-0.00000014,0.00000001,0.00000007,-0.00000051,0.00000003,
 -0.00000019,-0.00000022,0.00000002,0.00000012,-0.00000061,0.00000004,-
 0.00000044,-0.00000045,0.00000004,0.00000052,-0.00000103,0.00000007,-0
 .00000333,-0.00000102,0.00000011,0.00000827,-0.00000356,0.00000020,-0.
 00005095,-0.00001878,0.00000154,0.00004130,-0.00024295,0.00001517,-0.0
 0028793,-0.00089435,0.00005758,-0.00388158,0.00243168,-0.00009860,0.06
 485785,0.00001420,-0.00001032,0.00000052,-0.00000571,0.00002216,-0.000
 00131,0.00000462,-0.00002026,0.00000119,-0.00000159,0.00002410,-0.0000
 0146,0.00000244,-0.00002109,0.00000125,-0.00000022,0.00002690,-0.00000
 165,0.00000155,-0.00002342,0.00000139,0.00000125,0.00003058,-0.0000018
 8,0.00000053,-0.00002699,0.00000160,0.00000359,0.00003573,-0.00000223,
 -0.00000142,-0.00003263,0.00000193,0.00000822,0.00004323,-0.00000270,-
 0.00000617,-0.00004239,0.00000257,0.00001974,0.00005467,-0.00000371,-0
 .00001862,-0.00006452,0.00000335,0.00004427,0.00007730,-0.00000405,-0.
 00001130,-0.00009008,0.00000427,0.00042807,0.00055240,-0.00004856,-0.0
 0181382,0.00085235,-0.00013979,-0.00373409,-0.01693185,0.00123505,-0.0
 3286992,-0.32114292,0.01717227,-0.00004097,-0.00955583,0.00089648,0.00
 000278,0.00000003,-0.00000001,-0.00000052,0.00000037,-0.00000001,-0.00
 000029,-0.00000335,0.00000021,0.,-0.00000030,0.00000003,0.00000006,-0.
 00000404,0.00000025,-0.00000007,-0.00000059,0.00000005,0.00000014,-0.0
 0000473,0.00000030,-0.00000007,-0.00000086,0.00000007,0.00000023,-0.00
 000558,0.00000036,-0.00000004,-0.00000114,0.00000010,0.00000034,-0.000
 00667,0.00000044,0.00000008,-0.00000138,0.00000014,0.00000048,-0.00000
 808,0.00000055,0.00000055,-0.00000134,0.00000018,0.00000040,-0.0000097
 4,0.00000067,0.00000267,-0.00000008,0.00000024,-0.00000214,-0.00001170
 ,0.00000105,0.00003896,0.00000532,0.00000007,-0.00025416,0.00010253,0.
 00000194,0.00104682,0.00068021,-0.00003475,0.00261857,-0.00062445,0.00
 024322,0.03621749,0.34403204,-0.00000087,0.00000061,-0.00000033,0.0000
 0035,-0.00000136,0.,-0.00000028,0.00000123,-0.00000023,0.00000009,-0.0
 0000148,-0.00000007,-0.00000014,0.00000128,-0.00000031,0.,-0.00000166,
 -0.00000014,-0.00000008,0.00000141,-0.00000043,-0.00000010,-0.00000189
 ,-0.00000021,0.,0.00000162,-0.00000061,-0.00000026,-0.00000222,-0.0000
 0053,0.00000013,0.00000192,-0.00000116,-0.00000057,-0.00000265,-0.0000
 0028,0.00000047,0.00000253,-0.00000089,-0.00000136,-0.00000357,-0.0000
 0420,0.00000123,0.00000323,-0.00001145,-0.00000298,-0.00000369,0.00001
 563,0.00000092,0.00000477,-0.00002126,-0.00002681,-0.00004523,-0.00019
 894,0.00008874,-0.00016085,-0.00163575,0.00021599,0.00103959,0.0029538
 4,0.00212599,0.01716335,-0.04277148,0.00004511,0.00110357,0.00514358,-
 0.00000017,0.,0.00000011,0.00000003,-0.00000001,0.00000014,0.00000002,
 0.00000021,0.00000011,0.,0.00000003,0.00000015,0.,0.00000026,0.0000001
 5,0.,0.00000005,0.00000022,0.,0.00000030,0.00000022,0.,0.00000007,0.00
 000032,-0.00000001,0.00000036,0.00000034,0.,0.00000010,0.00000050,-0.0
 0000002,0.00000044,0.00000054,0.,0.00000014,0.00000091,-0.00000002,0.0
 0000056,0.00000097,-0.00000002,0.00000018,0.00000160,-0.00000002,0.000
 00068,0.00000125,-0.00000011,0.00000027,0.00000421,0.00000011,0.000001
 06,0.00000534,-0.00000196,0.00000044,0.00001059,0.00001585,0.00000186,
 0.00010702,-0.00006024,-0.00002215,0.00022139,-0.00010994,0.00024444,0
 .00364907,-0.00244190,-0.01945790,0.02850032,0.00000223,-0.00000153,0.
 00000008,-0.00000101,0.00000339,-0.00000020,0.00000086,-0.00000298,0.0
 0000017,-0.00000055,0.00000358,-0.00000021,0.00000072,-0.00000295,0.00
 000017,-0.00000064,0.00000385,-0.00000023,0.00000094,-0.00000308,0.000
 00018,-0.00000093,0.00000417,-0.00000025,0.00000137,-0.00000324,0.0000
 0019,-0.00000147,0.00000455,-0.00000026,0.00000212,-0.00000344,0.00000
 019,-0.00000239,0.00000488,-0.00000032,0.00000327,-0.00000365,0.000000
 20,-0.00000340,0.00000503,-0.00000013,0.00000535,-0.00000343,0.0000001
 1,-0.00000403,0.00000278,-0.00000082,0.00002467,0.00000002,0.00000008,
 0.00003753,0.00007516,-0.00000272,-0.00013679,0.00020622,-0.00001209,0
 .00178975,-0.00183420,0.00005189,-0.00019935,-0.03088562,0.00190633,-0
 .06582374,-0.04073963,0.00268442,0.00000044,-0.00000001,0.,-0.00000009
 ,0.00000005,0.,-0.00000006,-0.00000052,0.00000003,0.,-0.00000006,0.,0.
 ,-0.00000061,0.00000004,-0.00000002,-0.00000011,0.,0.,-0.00000069,0.00
 000004,-0.00000001,-0.00000016,0.00000001,0.,-0.00000077,0.00000005,0.
 ,-0.00000021,0.00000002,-0.00000004,-0.00000084,0.00000006,0.00000005,
 -0.00000023,0.00000002,-0.00000011,-0.00000086,0.00000006,0.00000018,-
 0.00000015,0.00000002,-0.00000040,-0.00000058,0.00000005,0.00000130,0.
 00000045,-0.00000009,-0.00000320,0.00000096,0.,0.00001039,0.00000317,-
 0.00000016,-0.00005025,0.00003364,-0.00000169,0.00013267,0.00023439,-0
 .00001289,-0.00023325,0.00095235,-0.00005440,-0.00466824,-0.00160237,0
 .00019879,0.06252407,-0.00000135,0.00000059,-0.00000005,0.00000098,-0.
 00000187,0.00000010,-0.00000134,0.00000129,-0.00000008,0.00000156,-0.0
 0000214,0.00000011,-0.00000235,0.00000125,-0.00000008,0.00000296,-0.00
 000255,0.00000012,-0.00000431,0.00000126,-0.00000007,0.00000546,-0.000
 00318,0.00000012,-0.00000778,0.00000124,-0.00000005,0.00000994,-0.0000
 0420,0.00000022,-0.00001415,0.00000106,-0.00000004,0.00001832,-0.00000
 603,-0.00000012,-0.00002677,0.00000052,0.00000012,0.00003534,-0.000009
 61,0.00000179,-0.00005595,-0.00000069,-0.00000015,0.00007235,-0.000023
 02,-0.00000542,-0.00012960,-0.00000189,0.00000325,0.00011688,-0.000058
 46,0.00002230,-0.00034386,0.00043010,-0.00002815,0.00221141,0.00097334
 ,-0.00052045,-0.00075114,-0.00972419,0.00088046,-0.04418493,-0.3301860
 4,0.01831203,-0.00000025,0.00000002,0.,0.00000005,0.00000006,0.,0.0000
 0004,0.00000037,-0.00000001,0.00000004,0.00000016,0.,-0.00000001,0.000
 00046,-0.00000002,0.00000006,0.00000023,0.,-0.00000002,0.00000056,-0.0
 0000002,0.00000009,0.00000034,0.,-0.00000004,0.00000071,-0.00000002,0.
 00000014,0.00000050,0.,-0.00000007,0.00000095,-0.00000002,0.00000026,0
 .00000078,-0.00000002,-0.00000015,0.00000138,-0.00000001,0.00000056,0.
 00000131,0.00000007,-0.00000035,0.00000227,-0.00000002,0.00000156,0.00
 000250,-0.00000071,-0.00000094,0.00000469,-0.00000002,0.00000496,0.000
 00406,0.00000069,-0.00001458,0.00000793,-0.00000019,0.00022025,-0.0000
 1649,0.00002011,-0.00096917,0.00054557,-0.00000918,-0.00190030,0.00087
 866,0.00062496,0.05088728,0.34933030,0.00000007,-0.00000005,-0.0000003
 2,-0.00000005,0.00000009,-0.00000009,0.00000007,-0.00000007,-0.0000001
 7,-0.00000009,0.00000010,-0.00000020,0.00000014,-0.00000007,-0.0000002
 4,-0.00000018,0.00000012,-0.00000020,0.00000025,-0.00000008,-0.0000003
 6,-0.00000033,0.00000013,-0.00000063,0.00000046,-0.00000008,-0.0000004
 3,-0.00000059,0.00000025,0.00000046,0.00000084,-0.00000011,-0.00000107
 ,-0.00000114,-0.00000003,-0.00000608,0.00000160,-0.00000003,-0.0000004
 1,-0.00000197,0.00000198,0.00002349,0.00000330,-0.00000049,-0.00000909
 ,-0.00000504,-0.00000497,-0.00010428,0.00000795,0.00000241,0.00003754,
 -0.00000525,0.00002257,0.00032013,0.00002130,-0.00003172,-0.00006873,-
 0.00019365,-0.00049419,-0.00733420,0.00007741,0.00107609,0.00463672,0.
 00289352,0.01828967,-0.03431979,0.00000001,0.,0.00000012,0.,0.,0.00000
 015,0.,-0.00000001,0.00000014,0.,0.,0.00000016,0.,-0.00000001,0.000000
 19,0.,0.,0.00000023,0.,-0.00000001,0.00000027,0.,0.,0.00000031,0.,-0.0
 0000001,0.00000040,0.,0.,0.00000055,0.,-0.00000001,0.00000063,-0.00000
 001,-0.00000001,0.00000053,0.00000002,0.,0.00000117,-0.00000002,0.0000
 0008,0.00000260,0.00000004,-0.00000001,0.00000196,-0.00000016,-0.00000
 070,-0.00000899,0.00000011,-0.00000003,0.00000422,-0.00000026,0.000000
 70,0.00001595,0.00000123,-0.00000050,0.00000323,-0.00001203,0.00002001
 ,0.00033722,0.00006222,-0.00002166,0.00029151,0.00021687,0.00062302,0.
 01093341,-0.00335324,-0.02021264,0.02298508,-0.00001162,0.00000823,-0.
 00000043,0.00000491,-0.00001801,0.00000106,-0.00000418,0.00001616,-0.0
 0000095,0.00000200,-0.00001952,0.00000117,-0.00000295,0.00001661,-0.00
 000099,0.00000165,-0.00002169,0.00000130,-0.00000318,0.00001813,-0.000
 00108,0.00000179,-0.00002451,0.00000148,-0.00000408,0.00002034,-0.0000
 0121,0.00000237,-0.00002840,0.00000169,-0.00000586,0.00002357,-0.00000
 139,0.00000343,-0.00003400,0.00000213,-0.00000966,0.00002891,-0.000001
 72,0.00000371,-0.00004388,0.00000220,-0.00002115,0.00004319,-0.0000024
 2,-0.00001246,-0.00007794,0.00000681,-0.00009237,0.00014147,-0.0000084
 7,-0.00025745,-0.00036426,0.00001436,-0.00062874,0.00133916,-0.0000757
 1,-0.00264178,-0.00422330,0.00034891,-0.01875159,0.02042174,-0.0010905
 8,-0.23829160,0.13672689,-0.00695354,-0.00000228,0.,0.00000002,0.00000
 044,-0.00000025,0.00000001,0.00000025,0.00000278,-0.00000017,0.0000000
 3,0.00000034,-0.00000002,-0.00000005,0.00000335,-0.00000020,0.00000011
 ,0.00000061,-0.00000004,-0.00000011,0.00000393,-0.00000024,0.00000014,
 0.00000091,-0.00000005,-0.00000019,0.00000464,-0.00000028,0.00000019,0
 .00000126,-0.00000008,-0.00000029,0.00000557,-0.00000033,0.00000026,0.
 00000170,-0.00000010,-0.00000042,0.00000683,-0.00000041,0.00000043,0.0
 0000220,-0.00000015,-0.00000057,0.00000864,-0.00000051,0.00000082,0.00
 000239,0.,0.00000075,0.00001160,-0.00000071,0.00000131,-0.00000156,-0.
 00000040,0.00001602,0.00001724,-0.00000099,0.00000526,-0.00007368,0.00
 000538,0.00012974,0.00012561,-0.00001031,0.00102831,-0.00009454,-0.000
 04595,0.00659206,-0.00518107,0.00028660,0.25294660,0.00000019,0.000000
 14,-0.00000003,-0.00000047,-0.00000007,0.,0.00000064,0.00000032,-0.000
 00003,-0.00000113,-0.00000025,0.00000002,0.00000149,0.00000063,-0.0000
 0006,-0.00000230,-0.00000050,0.00000002,0.00000295,0.00000109,-0.00000
 010,-0.00000430,-0.00000085,0.00000011,0.00000548,0.00000185,-0.000000
 18,-0.00000786,-0.00000142,-0.00000008,0.00001006,0.00000322,-0.000000
 25,-0.00001449,-0.00000235,0.00000102,0.00001868,0.00000624,-0.0000007
 7,-0.00002822,-0.00000508,-0.00000360,0.00003580,0.00001547,-0.0000006
 2,-0.00006676,-0.00001776,0.00002023,0.00006213,0.00006496,-0.00000885
 ,-0.00027983,-0.00012720,-0.00007852,-0.00017194,0.00079716,-0.0000333
 6,-0.00210257,-0.00089558,0.00077325,-0.01249922,0.01064892,-0.0003117
 0,0.14123766,-0.16488547,0.00719866,0.,-0.00000003,0.,-0.00000001,0.00
 000002,0.,-0.00000002,0.00000003,0.,0.,0.,0.,-0.00000004,0.00000007,0.
 ,0.,0.,0.00000001,-0.00000006,0.00000013,0.,0.00000002,-0.00000001,0.0
 0000002,-0.00000010,0.00000023,0.,0.00000004,-0.00000001,0.00000001,-0
 .00000018,0.00000041,0.,0.00000008,0.,0.00000008,-0.00000035,0.0000007
 4,0.,0.00000021,0.00000005,-0.00000014,-0.00000089,0.00000152,0.000000
 02,0.00000067,0.00000031,0.00000136,-0.00000166,0.00000339,-0.00000016
 ,0.00000014,-0.00000163,-0.00000443,-0.00000656,0.00001054,0.00000093,
 0.00008504,-0.00000850,0.00000881,-0.00037617,0.00039675,-0.00003886,0
 .00023522,0.00122775,-0.00049689,0.02266602,-0.01215413,0.00073029,-0.
 14879741,0.16491895,0.00000006,-0.00000008,-0.00000027,0.,0.00000012,-
 0.00000009,-0.00000001,-0.00000013,-0.00000013,0.00000005,0.00000014,-
 0.00000011,-0.00000007,-0.00000016,-0.00000020,0.00000013,0.00000015,-
 0.00000037,-0.00000016,-0.00000020,-0.00000021,0.00000025,0.00000024,0
 .00000040,-0.00000031,-0.00000028,-0.00000053,0.00000044,0.00000005,-0
 .00000357,-0.00000057,-0.00000034,0.00000023,0.00000094,0.00000115,0.0
 0001288,-0.00000110,-0.00000084,-0.00000439,0.00000125,-0.00000350,-0.
 00006726,-0.00000198,-0.00000067,0.00000916,0.00000614,0.00002030,0.00
 030719,-0.00000365,-0.00000937,-0.00007363,0.00000923,-0.00007797,-0.0
 0144622,0.00001600,-0.00004317,0.00023167,0.00022020,0.00078701,0.0115
 7089,0.00090745,-0.00052542,0.00420212,-0.00722730,0.00722794,-0.03155
 931,0.00000002,0.,0.00000010,0.,0.,0.00000012,0.,-0.00000001,0.0000001
 1,0.,0.,0.00000014,0.,-0.00000002,0.00000015,0.,0.,0.00000017,0.,-0.00
 000002,0.00000021,0.,0.00000001,0.00000030,0.,-0.00000003,0.00000029,0
 .,0.,0.00000018,0.00000002,-0.00000003,0.00000047,0.,0.00000007,0.0000
 0141,0.00000003,-0.00000005,0.00000062,-0.00000003,-0.00000016,-0.0000
 0227,0.00000007,-0.00000004,0.00000182,0.00000010,0.00000135,0.0000227
 7,0.00000010,-0.00000024,0.00000062,-0.00000050,-0.00000442,-0.0000742
 9,0.00000046,0.00000078,0.00002511,-0.00000425,0.00000984,0.00014524,0
 .00002015,-0.00004211,-0.00028128,-0.00006597,-0.00049474,-0.00690366,
 -0.00140349,0.00091107,0.00225691,0.00752630,-0.00775628,0.02162647\\0
 .00001597,0.00000505,-0.00000042,0.00000265,-0.00000308,0.00000016,-0.
 00000850,0.00000647,-0.00000034,0.00000562,-0.00000512,0.00000027,-0.0
 0000763,0.00000664,-0.00000036,0.00000239,-0.00000306,0.00000016,0.000
 00032,0.00000486,-0.00000031,-0.00000477,-0.00000315,0.00000021,0.0000
 0936,0.00000491,-0.00000036,-0.00001167,-0.00000402,0.00000032,0.00001
 370,0.00000469,-0.00000036,-0.00001373,-0.00000470,0.00000039,0.000011
 76,0.00000399,-0.00000029,-0.00000952,-0.00000490,0.00000039,0.0000049
 6,0.00000310,-0.00000018,-0.00000053,-0.00000482,0.00000033,-0.0000021
 4,0.00000300,-0.00000014,0.00000748,-0.00000661,0.00000038,-0.00000538
 ,0.00000509,-0.00000026,0.00000841,-0.00000645,0.00000034,-0.00000250,
 0.00000312,-0.00000015,-0.00001607,-0.00000507,0.00000043,-0.00000231,
 -0.00000294,0.00000019,-0.00000429,-0.00000142,0.00000012,-0.00000269,
 0.00000087,-0.00000003,0.00000291,-0.00000323,0.00000018,-0.00000329,0
 .00000305,-0.00000016,0.00000254,-0.00000341,0.00000020,-0.00000329,0.
 00000216,-0.00000010,0.00000216,-0.00000275,0.00000016,-0.00000214,0.0
 0000191,-0.00000009,0.00000129,-0.00000238,0.00000014,-0.00000118,0.00
 000192,-0.00000011,0.00000086,-0.00000208,0.00000011,-0.00000088,0.000
 00211,-0.00000014,0.00000116,-0.00000190,0.00000008,-0.00000130,0.0000
 0242,-0.00000017,0.00000211,-0.00000191,0.00000006,-0.00000216,0.00000
 278,-0.00000019,0.00000326,-0.00000217,0.00000008,-0.00000254,0.000003
 41,-0.00000022,0.00000326,-0.00000305,0.00000014,-0.00000292,0.0000032
 1,-0.00000019,0.00000266,-0.00000087,0.00000002,0.00000431,0.00000140,
 -0.00000012,0.00000231,0.00000294,-0.00000019\\\@


 Some scientists claim that hydrogen, because it is so
 plentiful, is the basic building block of the universe. 
 I dispute that. I say that stupidity is far more
 abundant than hydrogen, and THAT is the basic building 
 block of the universe.
                   --Frank Zappa
 Job cpu time:       0 days  2 hours 15 minutes 40.4 seconds.
 Elapsed time:       0 days  0 hours 33 minutes 55.5 seconds.
 File lengths (MBytes):  RWF=    898 Int=      0 D2E=      0 Chk=     38 Scr=      1
 Normal termination of Gaussian 16 at Thu Nov  9 21:55:24 2023.
