 Entering Gaussian System, Link 0=g16
 Input=./com/12.com
 Output=./log/12.log
 Initial command:
 /home/shohei/gaussian/g16/l1.exe "/home/shohei/gaussian/scratch/Gau-15710.inp" -scrdir="/home/shohei/gaussian/scratch/"
 Entering Link 1 = /home/shohei/gaussian/g16/l1.exe PID=     15712.
  
 Copyright (c) 1988-2017, Gaussian, Inc.  All Rights Reserved.
  
 This is part of the Gaussian(R) 16 program.  It is based on
 the Gaussian(R) 09 system (copyright 2009, Gaussian, Inc.),
 the Gaussian(R) 03 system (copyright 2003, Gaussian, Inc.),
 the Gaussian(R) 98 system (copyright 1998, Gaussian, Inc.),
 the Gaussian(R) 94 system (copyright 1995, Gaussian, Inc.),
 the Gaussian 92(TM) system (copyright 1992, Gaussian, Inc.),
 the Gaussian 90(TM) system (copyright 1990, Gaussian, Inc.),
 the Gaussian 88(TM) system (copyright 1988, Gaussian, Inc.),
 the Gaussian 86(TM) system (copyright 1986, Carnegie Mellon
 University), and the Gaussian 82(TM) system (copyright 1983,
 Carnegie Mellon University). Gaussian is a federally registered
 trademark of Gaussian, Inc.
  
 This software contains proprietary and confidential information,
 including trade secrets, belonging to Gaussian, Inc.
  
 This software is provided under written license and may be
 used, copied, transmitted, or stored only in accord with that
 written license.
  
 The following legend is applicable only to US Government
 contracts under FAR:
  
                    RESTRICTED RIGHTS LEGEND
  
 Use, reproduction and disclosure by the US Government is
 subject to restrictions as set forth in subparagraphs (a)
 and (c) of the Commercial Computer Software - Restricted
 Rights clause in FAR 52.227-19.
  
 Gaussian, Inc.
 340 Quinnipiac St., Bldg. 40, Wallingford CT 06492
  
  
 ---------------------------------------------------------------
 Warning -- This program may not be used in any manner that
 competes with the business of Gaussian, Inc. or will provide
 assistance to any competitor of Gaussian, Inc.  The licensee
 of this program is prohibited from giving any competitor of
 Gaussian, Inc. access to this program.  By using this program,
 the user acknowledges that Gaussian, Inc. is engaged in the
 business of creating and licensing software in the field of
 computational chemistry and represents and warrants to the
 licensee that it is not a competitor of Gaussian, Inc. and that
 it will not use this program in any manner prohibited above.
 ---------------------------------------------------------------
  

 Cite this work as:
 Gaussian 16, Revision B.01,
 M. J. Frisch, G. W. Trucks, H. B. Schlegel, G. E. Scuseria, 
 M. A. Robb, J. R. Cheeseman, G. Scalmani, V. Barone, 
 G. A. Petersson, H. Nakatsuji, X. Li, M. Caricato, A. V. Marenich, 
 J. Bloino, B. G. Janesko, R. Gomperts, B. Mennucci, H. P. Hratchian, 
 J. V. Ortiz, A. F. Izmaylov, J. L. Sonnenberg, D. Williams-Young, 
 F. Ding, F. Lipparini, F. Egidi, J. Goings, B. Peng, A. Petrone, 
 T. Henderson, D. Ranasinghe, V. G. Zakrzewski, J. Gao, N. Rega, 
 G. Zheng, W. Liang, M. Hada, M. Ehara, K. Toyota, R. Fukuda, 
 J. Hasegawa, M. Ishida, T. Nakajima, Y. Honda, O. Kitao, H. Nakai, 
 T. Vreven, K. Throssell, J. A. Montgomery, Jr., J. E. Peralta, 
 F. Ogliaro, M. J. Bearpark, J. J. Heyd, E. N. Brothers, K. N. Kudin, 
 V. N. Staroverov, T. A. Keith, R. Kobayashi, J. Normand, 
 K. Raghavachari, A. P. Rendell, J. C. Burant, S. S. Iyengar, 
 J. Tomasi, M. Cossi, J. M. Millam, M. Klene, C. Adamo, R. Cammi, 
 J. W. Ochterski, R. L. Martin, K. Morokuma, O. Farkas, 
 J. B. Foresman, and D. J. Fox, Gaussian, Inc., Wallingford CT, 2016.
 
 ******************************************
 Gaussian 16:  EM64L-G16RevB.01 20-Dec-2017
                 9-Nov-2023 
 ******************************************
 %chk=checkpoint.chk
 %nprocshared=4
 Will use up to    4 processors via shared memory.
 ---------------------------
 # B3LYP/6-31G(d,p) OPT FREQ
 ---------------------------
 1/18=20,19=15,26=3,38=1/1,3;
 2/9=110,12=2,17=6,18=5,40=1/2;
 3/5=1,6=6,7=101,11=2,25=1,30=1,71=1,74=-5/1,2,3;
 4//1;
 5/5=2,38=5/2;
 6/7=2,8=2,9=2,10=2,28=1/1;
 7//1,2,3,16;
 1/18=20,19=15,26=3/3(2);
 2/9=110/2;
 99//99;
 2/9=110/2;
 3/5=1,6=6,7=101,11=2,25=1,30=1,71=1,74=-5/1,2,3;
 4/5=5,16=3,69=1/1;
 5/5=2,38=5/2;
 7//1,2,3,16;
 1/18=20,19=15,26=3/3(-5);
 2/9=110/2;
 6/7=2,8=2,9=2,10=2,19=2,28=1/1;
 99/9=1/99;
 ------
 12poly
 ------
 Symbolic Z-matrix:
 Charge =  0 Multiplicity = 1
 C                    -2.35208   1.09712   0.01876 
 C                    -1.13811   1.65091  -0.02294 
 C                     0.08255   0.81973   0.01875 
 C                     1.29831   1.38048  -0.02326 
 C                     2.52072   0.55092   0.01845 
 C                     3.73559   1.11374  -0.02335 
 C                     4.95973   0.28681   0.01843 
 C                     6.17329   0.85261  -0.02296 
 C                     7.39946   0.02882   0.01897 
 C                     8.61177   0.59746  -0.02189 
 C                     9.83935  -0.22408   0.02024 
 C                     11.05124   0.34564  -0.02014 
 C                     12.27845  -0.47634   0.02214 
 C                     13.49147   0.09105  -0.01808 
 C                     14.71569  -0.73538   0.0242 
 C                     15.93167  -0.17446  -0.01645 
 C                     17.15031  -1.00928   0.0256 
 C                     18.37059  -0.4581   -0.01608 
 C                     19.58218  -1.30338   0.02555 
 C                     20.80695  -0.76265  -0.0175 
 C                     22.01203  -1.61742   0.02369 
 C                     23.24014  -1.08474  -0.02054 
 C                     24.44037  -1.94549   0.02039 
 C                     25.66774  -1.42251  -0.02402 
 H                    -3.23605   1.72586  -0.01303 
 H                    -2.47667   0.02025   0.08449 
 H                    -1.0553    2.73253  -0.08864 
 H                    -0.01245  -0.26182   0.08452 
 H                     1.39183   2.46218  -0.08897 
 H                     2.42802  -0.53082   0.08409 
 H                     3.82729   2.19559  -0.0889 
 H                     4.86947  -0.79516   0.08386 
 H                     6.26239   1.93468  -0.08826 
 H                     7.31172  -1.0534    0.0841 
 H                     8.69871   1.67971  -0.08689 
 H                     9.75288  -1.30644   0.08507 
 H                     11.1379   1.42792  -0.08492 
 H                     12.19057  -1.5586    0.08684 
 H                     13.581    1.17309  -0.08287 
 H                     14.6229  -1.81722   0.08907 
 H                     16.02756   0.90701  -0.08158 
 H                     17.04959  -2.09036   0.09101 
 H                     18.4752   0.62254  -0.08188 
 H                     19.47244  -2.38353   0.09173 
 H                     20.92026   0.31705  -0.08408 
 H                     21.89495  -2.69678   0.09062 
 H                     23.36037  -0.00583  -0.08774 
 H                     24.33091  -3.02469   0.08766 
 H                     25.8194  -0.34931  -0.09147 
 H                     26.53546  -2.0736    0.00721 
 

 GradGradGradGradGradGradGradGradGradGradGradGradGradGradGradGradGradGrad
 Berny optimization.
 Initialization pass.
                           ----------------------------
                           !    Initial Parameters    !
                           ! (Angstroms and Degrees)  !
 --------------------------                            --------------------------
 ! Name  Definition              Value          Derivative Info.                !
 --------------------------------------------------------------------------------
 ! R1    R(1,2)                  1.335          estimate D2E/DX2                !
 ! R2    R(1,25)                 1.0852         estimate D2E/DX2                !
 ! R3    R(1,26)                 1.086          estimate D2E/DX2                !
 ! R4    R(2,3)                  1.4774         estimate D2E/DX2                !
 ! R5    R(2,27)                 1.0868         estimate D2E/DX2                !
 ! R6    R(3,4)                  1.3395         estimate D2E/DX2                !
 ! R7    R(3,28)                 1.0877         estimate D2E/DX2                !
 ! R8    R(4,5)                  1.4779         estimate D2E/DX2                !
 ! R9    R(4,29)                 1.0877         estimate D2E/DX2                !
 ! R10   R(5,6)                  1.3396         estimate D2E/DX2                !
 ! R11   R(5,30)                 1.0877         estimate D2E/DX2                !
 ! R12   R(6,7)                  1.4779         estimate D2E/DX2                !
 ! R13   R(6,31)                 1.0877         estimate D2E/DX2                !
 ! R14   R(7,8)                  1.3396         estimate D2E/DX2                !
 ! R15   R(7,32)                 1.0877         estimate D2E/DX2                !
 ! R16   R(8,9)                  1.4778         estimate D2E/DX2                !
 ! R17   R(8,33)                 1.0877         estimate D2E/DX2                !
 ! R18   R(9,10)                 1.3397         estimate D2E/DX2                !
 ! R19   R(9,34)                 1.0877         estimate D2E/DX2                !
 ! R20   R(10,11)                1.4777         estimate D2E/DX2                !
 ! R21   R(10,35)                1.0877         estimate D2E/DX2                !
 ! R22   R(11,12)                1.3397         estimate D2E/DX2                !
 ! R23   R(11,36)                1.0877         estimate D2E/DX2                !
 ! R24   R(12,13)                1.4777         estimate D2E/DX2                !
 ! R25   R(12,37)                1.0877         estimate D2E/DX2                !
 ! R26   R(13,14)                1.3398         estimate D2E/DX2                !
 ! R27   R(13,38)                1.0877         estimate D2E/DX2                !
 ! R28   R(14,15)                1.4777         estimate D2E/DX2                !
 ! R29   R(14,39)                1.0877         estimate D2E/DX2                !
 ! R30   R(15,16)                1.3397         estimate D2E/DX2                !
 ! R31   R(15,40)                1.0877         estimate D2E/DX2                !
 ! R32   R(16,17)                1.4778         estimate D2E/DX2                !
 ! R33   R(16,41)                1.0877         estimate D2E/DX2                !
 ! R34   R(17,18)                1.3396         estimate D2E/DX2                !
 ! R35   R(17,42)                1.0877         estimate D2E/DX2                !
 ! R36   R(18,19)                1.4779         estimate D2E/DX2                !
 ! R37   R(18,43)                1.0877         estimate D2E/DX2                !
 ! R38   R(19,20)                1.3395         estimate D2E/DX2                !
 ! R39   R(19,44)                1.0877         estimate D2E/DX2                !
 ! R40   R(20,21)                1.478          estimate D2E/DX2                !
 ! R41   R(20,45)                1.0877         estimate D2E/DX2                !
 ! R42   R(21,22)                1.3394         estimate D2E/DX2                !
 ! R43   R(21,46)                1.0877         estimate D2E/DX2                !
 ! R44   R(22,23)                1.4775         estimate D2E/DX2                !
 ! R45   R(22,47)                1.0877         estimate D2E/DX2                !
 ! R46   R(23,24)                1.3349         estimate D2E/DX2                !
 ! R47   R(23,48)                1.0868         estimate D2E/DX2                !
 ! R48   R(24,49)                1.086          estimate D2E/DX2                !
 ! R49   R(24,50)                1.0853         estimate D2E/DX2                !
 ! A1    A(2,1,25)             119.9641         estimate D2E/DX2                !
 ! A2    A(2,1,26)             121.1677         estimate D2E/DX2                !
 ! A3    A(25,1,26)            118.8682         estimate D2E/DX2                !
 ! A4    A(1,2,3)              121.1365         estimate D2E/DX2                !
 ! A5    A(1,2,27)             118.9505         estimate D2E/DX2                !
 ! A6    A(3,2,27)             119.9131         estimate D2E/DX2                !
 ! A7    A(2,3,4)              120.8975         estimate D2E/DX2                !
 ! A8    A(2,3,28)             119.2727         estimate D2E/DX2                !
 ! A9    A(4,3,28)             119.8299         estimate D2E/DX2                !
 ! A10   A(3,4,5)              120.9876         estimate D2E/DX2                !
 ! A11   A(3,4,29)             119.7513         estimate D2E/DX2                !
 ! A12   A(5,4,29)             119.2611         estimate D2E/DX2                !
 ! A13   A(4,5,6)              120.8919         estimate D2E/DX2                !
 ! A14   A(4,5,30)             119.3047         estimate D2E/DX2                !
 ! A15   A(6,5,30)             119.8034         estimate D2E/DX2                !
 ! A16   A(5,6,7)              121.0134         estimate D2E/DX2                !
 ! A17   A(5,6,31)             119.7507         estimate D2E/DX2                !
 ! A18   A(7,6,31)             119.2359         estimate D2E/DX2                !
 ! A19   A(6,7,8)              120.8754         estimate D2E/DX2                !
 ! A20   A(6,7,32)             119.3118         estimate D2E/DX2                !
 ! A21   A(8,7,32)             119.8128         estimate D2E/DX2                !
 ! A22   A(7,8,9)              121.0201         estimate D2E/DX2                !
 ! A23   A(7,8,33)             119.7515         estimate D2E/DX2                !
 ! A24   A(9,8,33)             119.2284         estimate D2E/DX2                !
 ! A25   A(8,9,10)             120.8885         estimate D2E/DX2                !
 ! A26   A(8,9,34)             119.3004         estimate D2E/DX2                !
 ! A27   A(10,9,34)            119.8112         estimate D2E/DX2                !
 ! A28   A(9,10,11)            120.9904         estimate D2E/DX2                !
 ! A29   A(9,10,35)            119.7686         estimate D2E/DX2                !
 ! A30   A(11,10,35)           119.2411         estimate D2E/DX2                !
 ! A31   A(10,11,12)           120.9419         estimate D2E/DX2                !
 ! A32   A(10,11,36)           119.2661         estimate D2E/DX2                !
 ! A33   A(12,11,36)           119.792          estimate D2E/DX2                !
 ! A34   A(11,12,13)           120.9194         estimate D2E/DX2                !
 ! A35   A(11,12,37)           119.8021         estimate D2E/DX2                !
 ! A36   A(13,12,37)           119.2785         estimate D2E/DX2                !
 ! A37   A(12,13,14)           121.0303         estimate D2E/DX2                !
 ! A38   A(12,13,38)           119.214          estimate D2E/DX2                !
 ! A39   A(14,13,38)           119.7557         estimate D2E/DX2                !
 ! A40   A(13,14,15)           120.8231         estimate D2E/DX2                !
 ! A41   A(13,14,39)           119.8433         estimate D2E/DX2                !
 ! A42   A(15,14,39)           119.3335         estimate D2E/DX2                !
 ! A43   A(14,15,16)           121.1264         estimate D2E/DX2                !
 ! A44   A(14,15,40)           119.1612         estimate D2E/DX2                !
 ! A45   A(16,15,40)           119.7124         estimate D2E/DX2                !
 ! A46   A(15,16,17)           120.7369         estimate D2E/DX2                !
 ! A47   A(15,16,41)           119.8767         estimate D2E/DX2                !
 ! A48   A(17,16,41)           119.3864         estimate D2E/DX2                !
 ! A49   A(16,17,18)           121.1892         estimate D2E/DX2                !
 ! A50   A(16,17,42)           119.1314         estimate D2E/DX2                !
 ! A51   A(18,17,42)           119.6795         estimate D2E/DX2                !
 ! A52   A(17,18,19)           120.7015         estimate D2E/DX2                !
 ! A53   A(17,18,43)           119.8858         estimate D2E/DX2                !
 ! A54   A(19,18,43)           119.4127         estimate D2E/DX2                !
 ! A55   A(18,19,20)           121.1843         estimate D2E/DX2                !
 ! A56   A(18,19,44)           119.1416         estimate D2E/DX2                !
 ! A57   A(20,19,44)           119.6741         estimate D2E/DX2                !
 ! A58   A(19,20,21)           120.7395         estimate D2E/DX2                !
 ! A59   A(19,20,45)           119.8641         estimate D2E/DX2                !
 ! A60   A(21,20,45)           119.3963         estimate D2E/DX2                !
 ! A61   A(20,21,22)           121.1093         estimate D2E/DX2                !
 ! A62   A(20,21,46)           119.1975         estimate D2E/DX2                !
 ! A63   A(22,21,46)           119.6931         estimate D2E/DX2                !
 ! A64   A(21,22,23)           120.8125         estimate D2E/DX2                !
 ! A65   A(21,22,47)           119.8606         estimate D2E/DX2                !
 ! A66   A(23,22,47)           119.3269         estimate D2E/DX2                !
 ! A67   A(22,23,24)           121.1806         estimate D2E/DX2                !
 ! A68   A(22,23,48)           119.8928         estimate D2E/DX2                !
 ! A69   A(24,23,48)           118.9265         estimate D2E/DX2                !
 ! A70   A(23,24,49)           121.1747         estimate D2E/DX2                !
 ! A71   A(23,24,50)           119.9437         estimate D2E/DX2                !
 ! A72   A(49,24,50)           118.8816         estimate D2E/DX2                !
 ! D1    D(25,1,2,3)           179.9988         estimate D2E/DX2                !
 ! D2    D(25,1,2,27)            0.0004         estimate D2E/DX2                !
 ! D3    D(26,1,2,3)            -0.0004         estimate D2E/DX2                !
 ! D4    D(26,1,2,27)         -179.9988         estimate D2E/DX2                !
 ! D5    D(1,2,3,4)           -179.994          estimate D2E/DX2                !
 ! D6    D(1,2,3,28)             0.0027         estimate D2E/DX2                !
 ! D7    D(27,2,3,4)             0.0045         estimate D2E/DX2                !
 ! D8    D(27,2,3,28)         -179.9989         estimate D2E/DX2                !
 ! D9    D(2,3,4,5)            179.9946         estimate D2E/DX2                !
 ! D10   D(2,3,4,29)            -0.0002         estimate D2E/DX2                !
 ! D11   D(28,3,4,5)            -0.002          estimate D2E/DX2                !
 ! D12   D(28,3,4,29)         -179.9968         estimate D2E/DX2                !
 ! D13   D(3,4,5,6)           -179.9834         estimate D2E/DX2                !
 ! D14   D(3,4,5,30)             0.0088         estimate D2E/DX2                !
 ! D15   D(29,4,5,6)             0.0114         estimate D2E/DX2                !
 ! D16   D(29,4,5,30)         -179.9963         estimate D2E/DX2                !
 ! D17   D(4,5,6,7)            179.9887         estimate D2E/DX2                !
 ! D18   D(4,5,6,31)            -0.0017         estimate D2E/DX2                !
 ! D19   D(30,5,6,7)            -0.0036         estimate D2E/DX2                !
 ! D20   D(30,5,6,31)         -179.9939         estimate D2E/DX2                !
 ! D21   D(5,6,7,8)           -179.9717         estimate D2E/DX2                !
 ! D22   D(5,6,7,32)             0.0166         estimate D2E/DX2                !
 ! D23   D(31,6,7,8)             0.0187         estimate D2E/DX2                !
 ! D24   D(31,6,7,32)         -179.993          estimate D2E/DX2                !
 ! D25   D(6,7,8,9)            179.984          estimate D2E/DX2                !
 ! D26   D(6,7,8,33)            -0.0035         estimate D2E/DX2                !
 ! D27   D(32,7,8,9)            -0.0042         estimate D2E/DX2                !
 ! D28   D(32,7,8,33)         -179.9918         estimate D2E/DX2                !
 ! D29   D(7,8,9,10)          -179.9654         estimate D2E/DX2                !
 ! D30   D(7,8,9,34)             0.0223         estimate D2E/DX2                !
 ! D31   D(33,8,9,10)            0.0222         estimate D2E/DX2                !
 ! D32   D(33,8,9,34)         -179.9901         estimate D2E/DX2                !
 ! D33   D(8,9,10,11)          179.9848         estimate D2E/DX2                !
 ! D34   D(8,9,10,35)           -0.0046         estimate D2E/DX2                !
 ! D35   D(34,9,10,11)          -0.0028         estimate D2E/DX2                !
 ! D36   D(34,9,10,35)        -179.9922         estimate D2E/DX2                !
 ! D37   D(9,10,11,12)        -179.9727         estimate D2E/DX2                !
 ! D38   D(9,10,11,36)           0.0205         estimate D2E/DX2                !
 ! D39   D(35,10,11,12)          0.0168         estimate D2E/DX2                !
 ! D40   D(35,10,11,36)       -179.99           estimate D2E/DX2                !
 ! D41   D(10,11,12,13)        179.9944         estimate D2E/DX2                !
 ! D42   D(10,11,12,37)         -0.0036         estimate D2E/DX2                !
 ! D43   D(36,11,12,13)          0.0013         estimate D2E/DX2                !
 ! D44   D(36,11,12,37)       -179.9968         estimate D2E/DX2                !
 ! D45   D(11,12,13,14)       -179.9987         estimate D2E/DX2                !
 ! D46   D(11,12,13,38)          0.0069         estimate D2E/DX2                !
 ! D47   D(37,12,13,14)         -0.0006         estimate D2E/DX2                !
 ! D48   D(37,12,13,38)       -179.995          estimate D2E/DX2                !
 ! D49   D(12,13,14,15)       -179.9871         estimate D2E/DX2                !
 ! D50   D(12,13,14,39)          0.0001         estimate D2E/DX2                !
 ! D51   D(38,13,14,15)          0.0072         estimate D2E/DX2                !
 ! D52   D(38,13,14,39)        179.9944         estimate D2E/DX2                !
 ! D53   D(13,14,15,16)        179.9606         estimate D2E/DX2                !
 ! D54   D(13,14,15,40)         -0.0176         estimate D2E/DX2                !
 ! D55   D(39,14,15,16)         -0.0267         estimate D2E/DX2                !
 ! D56   D(39,14,15,40)        179.9951         estimate D2E/DX2                !
 ! D57   D(14,15,16,17)       -179.9655         estimate D2E/DX2                !
 ! D58   D(14,15,16,41)          0.006          estimate D2E/DX2                !
 ! D59   D(40,15,16,17)          0.0125         estimate D2E/DX2                !
 ! D60   D(40,15,16,41)        179.984          estimate D2E/DX2                !
 ! D61   D(15,16,17,18)        179.9206         estimate D2E/DX2                !
 ! D62   D(15,16,17,42)         -0.0445         estimate D2E/DX2                !
 ! D63   D(41,16,17,18)         -0.051          estimate D2E/DX2                !
 ! D64   D(41,16,17,42)        179.9838         estimate D2E/DX2                !
 ! D65   D(16,17,18,19)       -179.9507         estimate D2E/DX2                !
 ! D66   D(16,17,18,43)          0.0118         estimate D2E/DX2                !
 ! D67   D(42,17,18,19)          0.0143         estimate D2E/DX2                !
 ! D68   D(42,17,18,43)        179.9767         estimate D2E/DX2                !
 ! D69   D(17,18,19,20)        179.9023         estimate D2E/DX2                !
 ! D70   D(17,18,19,44)         -0.0602         estimate D2E/DX2                !
 ! D71   D(43,18,19,20)         -0.0603         estimate D2E/DX2                !
 ! D72   D(43,18,19,44)        179.9771         estimate D2E/DX2                !
 ! D73   D(18,19,20,21)       -179.9517         estimate D2E/DX2                !
 ! D74   D(18,19,20,45)          0.0142         estimate D2E/DX2                !
 ! D75   D(44,19,20,21)          0.0107         estimate D2E/DX2                !
 ! D76   D(44,19,20,45)        179.9766         estimate D2E/DX2                !
 ! D77   D(19,20,21,22)        179.9186         estimate D2E/DX2                !
 ! D78   D(19,20,21,46)         -0.0544         estimate D2E/DX2                !
 ! D79   D(45,20,21,22)         -0.0475         estimate D2E/DX2                !
 ! D80   D(45,20,21,46)        179.9795         estimate D2E/DX2                !
 ! D81   D(20,21,22,23)       -179.9696         estimate D2E/DX2                !
 ! D82   D(20,21,22,47)          0.011          estimate D2E/DX2                !
 ! D83   D(46,21,22,23)          0.0033         estimate D2E/DX2                !
 ! D84   D(46,21,22,47)        179.9838         estimate D2E/DX2                !
 ! D85   D(21,22,23,24)        179.9608         estimate D2E/DX2                !
 ! D86   D(21,22,23,48)         -0.0289         estimate D2E/DX2                !
 ! D87   D(47,22,23,24)         -0.0198         estimate D2E/DX2                !
 ! D88   D(47,22,23,48)        179.9905         estimate D2E/DX2                !
 ! D89   D(22,23,24,49)          0.0026         estimate D2E/DX2                !
 ! D90   D(22,23,24,50)       -179.9919         estimate D2E/DX2                !
 ! D91   D(48,23,24,49)        179.9924         estimate D2E/DX2                !
 ! D92   D(48,23,24,50)         -0.0021         estimate D2E/DX2                !
 --------------------------------------------------------------------------------
 Trust Radius=3.00D-01 FncErr=1.00D-07 GrdErr=1.00D-06 EigMax=2.50D+02 EigMin=1.00D-04
 Number of steps in this run=    223 maximum allowed number of steps=    300.
 GradGradGradGradGradGradGradGradGradGradGradGradGradGradGradGradGradGrad

                          Input orientation:                          
 ---------------------------------------------------------------------
 Center     Atomic      Atomic             Coordinates (Angstroms)
 Number     Number       Type             X           Y           Z
 ---------------------------------------------------------------------
      1          6           0       -2.352083    1.097119    0.018762
      2          6           0       -1.138114    1.650912   -0.022938
      3          6           0        0.082553    0.819726    0.018754
      4          6           0        1.298312    1.380476   -0.023255
      5          6           0        2.520716    0.550923    0.018445
      6          6           0        3.735594    1.113745   -0.023350
      7          6           0        4.959732    0.286814    0.018433
      8          6           0        6.173287    0.852606   -0.022965
      9          6           0        7.399462    0.028819    0.018971
     10          6           0        8.611775    0.597463   -0.021894
     11          6           0        9.839352   -0.224083    0.020236
     12          6           0       11.051242    0.345644   -0.020142
     13          6           0       12.278449   -0.476345    0.022140
     14          6           0       13.491466    0.091052   -0.018081
     15          6           0       14.715694   -0.735381    0.024196
     16          6           0       15.931667   -0.174464   -0.016447
     17          6           0       17.150310   -1.009279    0.025599
     18          6           0       18.370585   -0.458098   -0.016084
     19          6           0       19.582177   -1.303379    0.025546
     20          6           0       20.806946   -0.762648   -0.017503
     21          6           0       22.012025   -1.617424    0.023687
     22          6           0       23.240144   -1.084743   -0.020539
     23          6           0       24.440368   -1.945490    0.020389
     24          6           0       25.667737   -1.422513   -0.024021
     25          1           0       -3.236055    1.725865   -0.013027
     26          1           0       -2.476675    0.020252    0.084488
     27          1           0       -1.055299    2.732527   -0.088642
     28          1           0       -0.012450   -0.261819    0.084520
     29          1           0        1.391833    2.462179   -0.088967
     30          1           0        2.428024   -0.530820    0.084093
     31          1           0        3.827292    2.195595   -0.088898
     32          1           0        4.869469   -0.795163    0.083862
     33          1           0        6.262391    1.934678   -0.088257
     34          1           0        7.311717   -1.053401    0.084100
     35          1           0        8.698711    1.679715   -0.086891
     36          1           0        9.752883   -1.306440    0.085072
     37          1           0       11.137896    1.427920   -0.084921
     38          1           0       12.190567   -1.558604    0.086841
     39          1           0       13.580998    1.173090   -0.082870
     40          1           0       14.622896   -1.817215    0.089073
     41          1           0       16.027564    0.907012   -0.081583
     42          1           0       17.049587   -2.090362    0.091011
     43          1           0       18.475199    0.622535   -0.081881
     44          1           0       19.472439   -2.383529    0.091733
     45          1           0       20.920264    0.317055   -0.084080
     46          1           0       21.894951   -2.696779    0.090617
     47          1           0       23.360368   -0.005832   -0.087738
     48          1           0       24.330915   -3.024687    0.087657
     49          1           0       25.819400   -0.349305   -0.091470
     50          1           0       26.535461   -2.073599    0.007206
 ---------------------------------------------------------------------
                    Distance matrix (angstroms):
                    1          2          3          4          5
     1  C    0.000000
     2  C    1.334970   0.000000
     3  C    2.450388   1.477375   0.000000
     4  C    3.661618   2.451390   1.339506   0.000000
     5  C    4.903315   3.820828   2.452936   1.477893   0.000000
     6  C    6.087845   4.903222   3.665096   2.451833   1.339568
     7  C    7.356577   6.248696   4.906207   3.821495   2.453273
     8  C    8.528978   7.354855   6.090966   4.903471   3.665243
     9  C    9.809888   8.690406   7.359531   6.249223   4.906603
    10  C   10.975313   9.806635   8.532214   7.355260   6.091370
    11  C   12.262816  11.136527   9.812475   8.690561   7.359556
    12  C   13.424431  12.259043  10.978998   9.807677   8.533083
    13  C   14.714899  13.584234  12.264570  11.136123   9.811658
    14  C   15.875502  14.712505  13.428748  12.261143  10.980445
    15  C   17.165870  16.032462  14.715543  13.583270  12.262630
    16  C   18.327948  17.167104  15.880304  14.715738  13.430599
    17  C   19.615818  18.480948  17.165478  16.031193  14.712556
    18  C   20.780974  19.622368  18.332653  17.170990  15.881992
    19  C   22.065226  20.929899  19.614866  18.479859  17.161933
    20  C   23.233611  22.077386  20.784747  19.625998  18.333384
    21  C   24.514864  23.379760  22.064485  20.929585  19.611550
    22  C   25.685096  24.531272  23.235804  22.079885  20.783927
    23  C   26.964660  25.830113  24.514273  23.379878  22.061351
    24  C   28.132912  26.981468  25.683285  24.530096  23.231032
    25  H    1.085236   2.099302   3.440240   4.547514   5.875533
    26  H    1.086041   2.112424   2.682000   4.014019   5.025922
    27  H    2.089915   1.086769   2.228239   2.715106   4.190316
    28  H    2.706458   2.221982   1.087699   2.104007   2.661174
    29  H    3.986465   2.657658   2.103204   1.087725   2.222344
    30  H    5.050136   4.181955   2.707300   2.222796   1.087690
    31  H    6.277174   4.995627   3.990949   2.657906   2.103238
    32  H    7.465640   6.487352   5.052392   4.183065   2.707926
    33  H    8.655757   7.406232   6.280523   4.995342   3.990776
    34  H    9.900406   8.872678   7.468179   6.488168   5.052906
    35  H   11.066645   9.837076   8.659615   7.406720   6.281153
    36  H   12.341462  11.285895   9.901528   8.871923   7.467159
    37  H   13.494433  12.278192  11.072545   9.839891   8.662309
    38  H   14.783307  13.710098  12.339575  11.282355   9.897515
    39  H   15.933586  14.726988  13.503452  12.284581  11.078231
    40  H   17.223478  16.138460  14.777685  13.703371  12.331902
    41  H   18.380904  17.181890  15.945566  14.736975  13.511911
    42  H   19.661893  18.568861  17.214937  16.129551  14.767184
    43  H   20.832932  19.640344  18.393979  17.193701  15.954959
    44  H   22.100452  21.002018  19.652833  18.560168  17.203990
    45  H   23.285644  22.098755  20.844027  19.650841  18.401319
    46  H   24.542157  23.440081  22.094155  20.996630  19.644687
    47  H   25.736316  24.554523  23.292693  22.105662  20.847358
    48  H   26.999563  25.894882  24.551320  23.450342  22.101460
    49  H   28.208806  27.031706  25.763619  24.582118  23.316328
    50  H   29.061035  27.923103  26.610671  25.472440  24.157736
                    6          7          8          9         10
     6  C    0.000000
     7  C    1.477861   0.000000
     8  C    2.451641   1.339609   0.000000
     9  C    3.821359   2.453334   1.477799   0.000000
    10  C    4.903437   3.665454   2.451799   1.339675   0.000000
    11  C    6.248803   4.906293   3.821145   2.452962   1.477720
    12  C    7.355861   6.091917   4.904229   3.665706   2.452430
    13  C    8.689696   7.358400   6.248291   4.905070   3.820929
    14  C    9.809330   8.534058   7.357698   6.092434   4.905899
    15  C   11.134816   9.809369   8.688880   7.356036   6.247913
    16  C   12.263920  10.981683   9.812282   8.534699   7.360484
    17  C   13.581761  12.259287  11.133912   9.805953   8.688524
    18  C   14.719161  13.431570  12.267521  10.981979   9.815733
    19  C   16.029943  14.708660  13.581198  12.255339  11.133965
    20  C   17.174165  15.881967  14.722535  13.430874  12.270783
    21  C   18.479433  17.158289  16.030248  14.705004  13.582139
    22  C   19.628063  18.331835  17.176464  15.879823  14.724775
    23  C   20.929608  19.608120  18.480191  17.154893  16.031617
    24  C   22.078304  20.778477  19.626761  18.325886  17.175161
    25  H    6.998477   8.321224   9.449783  10.770107  11.901447
    26  H    6.308696   7.441476   8.690582   9.876358  11.103973
    27  H    5.057408   6.494118   7.469329   8.877196   9.900266
    28  H    3.993951   5.002795   6.286243   7.417898   8.667580
    29  H    2.704773   4.180149   5.045531   6.482631   7.457159
    30  H    2.103777   2.661274   3.994037   5.003263   6.286735
    31  H    1.087706   2.222023   2.704008   4.179349   5.044779
    32  H    2.222857   1.087704   2.103924   2.661583   3.994427
    33  H    2.657602   2.103274   1.087695   2.221874   2.704099
    34  H    4.182909   2.707826   2.222690   1.087723   2.103982
    35  H    4.995687   3.991395   2.658187   2.103500   1.087681
    36  H    6.486664   5.051455   4.181705   2.706635   2.222254
    37  H    7.409222   6.283512   4.998216   3.993014   2.659872
    38  H    8.867929   7.462924   6.483336   5.047693   4.179498
    39  H    9.845763   8.667294   7.414882   6.287377   5.002823
    40  H   11.275482   9.889826   8.862075   7.455920   6.478932
    41  H   12.293846  11.085647   9.854601   8.673262   7.422487
    42  H   13.694589  12.321559  11.268005   9.880335   8.856287
    43  H   14.747904  13.520009  12.304204  11.092097   9.863638
    44  H   16.121180  14.756516  13.687701  12.311843  11.262915
    45  H   17.203235  15.960890  14.756824  13.524266  12.311840
    46  H   18.555196  17.196182  16.117746  14.749685  13.686031
    47  H   19.656788  18.403269  17.208627  15.961300  14.761073
    48  H   21.007289  19.652317  18.567312  17.204729  16.131439
    49  H   22.132321  20.869655  19.682962  18.424149  17.233791
    50  H   23.021599  21.704464  20.571380  19.251149  18.121643
                   11         12         13         14         15
    11  C    0.000000
    12  C    1.339738   0.000000
    13  C    2.452108   1.477664   0.000000
    14  C    3.665885   2.453470   1.339764   0.000000
    15  C    4.903076   3.820836   2.450973   1.477672   0.000000
    16  C    6.092628   4.908062   3.665873   2.454604   1.339727
    17  C    7.353005   6.247923   4.900925   3.820966   2.449975
    18  C    8.534520   7.363342   6.092283   4.909926   3.665616
    19  C    9.802426   8.688971   7.350404   6.248448   4.899519
    20  C   10.980875   9.818456   8.533394   7.365124   6.091456
    21  C   12.252159  11.135274   9.800233   8.690257   7.349453
    22  C   13.428464  12.272545  10.978649   9.819330   8.531724
    23  C   14.702140  13.583800  12.250333  11.136761   9.799677
    24  C   15.873752  14.723055  13.422757  12.269984  10.973684
    25  H   13.220047  14.353811  15.670060  16.807218  18.119724
    26  H   12.318617  13.532234  14.763610  15.968627  17.209072
    27  H   11.289234  12.339782  13.714881  14.784814  16.148168
    28  H    9.852084  11.080850  12.292929  13.508915  14.735879
    29  H    8.865015   9.888814  11.276776  12.329979  13.702644
    30  H    7.417948   8.668272   9.850771  11.081377  12.289519
    31  H    6.481636   7.457379   8.864178   9.890924  11.276555
    32  H    5.002991   6.287017   7.416094   8.668022   9.846587
    33  H    4.179313   5.046064   6.482142   7.460791   8.865674
    34  H    2.660974   3.994025   5.000526   6.285659   7.411045
    35  H    2.221932   2.705291   4.180311   5.049661   6.484528
    36  H    1.087739   2.103850   2.659230   3.992571   4.995929
    37  H    2.103898   1.087670   2.222284   2.707577   4.182393
    38  H    2.704366   2.221636   1.087747   2.103500   2.656668
    39  H    3.995327   2.662380   2.104352   1.087667   2.222894
    40  H    5.042331   4.176913   2.701638   2.221059   1.087744
    41  H    6.291559   5.008262   3.997536   2.664886   2.104673
    42  H    7.448187   6.475077   5.037217   4.175008   2.699536
    43  H    8.677848   7.429376   6.294289   5.012399   3.998633
    44  H    9.872421   8.853104   7.442828   6.473612   5.034638
    45  H   11.094608   9.869270   8.678809   7.432528   6.294127
    46  H   12.306772  11.262976   9.869758   8.854512   7.442662
    47  H   13.523208  12.314328  11.092447   9.869623   8.676126
    48  H   14.759856  13.701112  12.319102  11.278859   9.884201
    49  H   15.980929  14.784672  13.542023  12.336015  11.111018
    50  H   16.798242  15.672094  14.346213  13.222411  11.895294
                   16         17         18         19         20
    16  C    0.000000
    17  C    1.477760   0.000000
    18  C    2.455355   1.339630   0.000000
    19  C    3.821314   2.449586   1.477900   0.000000
    20  C    4.910632   3.665197   2.455322   1.339516   0.000000
    21  C    6.249360   4.899604   3.821741   2.450059   1.478024
    22  C    7.364949   6.090477   4.909716   3.664785   2.454426
    23  C    8.691138   7.349929   6.249474   4.900444   3.821296
    24  C    9.815740   8.527590   7.360611   6.086928   4.905380
    25  H   19.261693  20.569063  21.716735  23.018460  24.171442
    26  H   18.409648  19.654057  20.852990  22.098607  23.297003
    27  H   17.234060  18.586510  19.686298  21.028718  22.139988
    28  H   15.944676  17.179130  18.384358  19.622379  20.825669
    29  H   14.777142  16.136720  17.228214  18.576360  19.681241
    30  H   13.508719  14.730175  15.943042  17.171641  18.380665
    31  H   12.334436  13.703545  14.783598  16.139155  17.235572
    32  H   11.080052  12.282846  13.505693  14.721599  15.937833
    33  H    9.896895  11.279478  12.342566  13.708197  14.792723
    34  H    8.665228   9.838866  11.075332  12.273146  13.498743
    35  H    7.467167   8.869772   9.905574  11.285447  12.352299
    36  H    6.282439   7.403632   8.659948   9.829475  11.067906
    37  H    5.054954   6.488550   7.474864   8.875702   9.914316
    38  H    3.990280   4.990446   6.278083   7.396269   8.653694
    39  H    2.710343   4.185032   5.060176   6.492981   7.481021
    40  H    2.103009   2.654169   3.987911   4.986235   6.274229
    41  H    1.087672   2.223560   2.712483   4.187193   5.063039
    42  H    2.220801   1.087733   2.102568   2.652856   3.986521
    43  H    2.666280   2.104686   1.087677   2.223980   2.712917
    44  H    4.174774   2.699114   2.221034   1.087726   2.102403
    45  H    5.013209   3.997967   2.665773   2.104353   1.087673
    46  H    6.475669   5.036219   4.176629   2.700874   2.221780
    47  H    7.430956   6.291627   5.010749   3.996396   2.664144
    48  H    8.870286   7.458338   6.490275   5.051462   4.188823
    49  H    9.889563   8.694963   7.449991   6.310855   5.030012
    50  H   10.772545   9.445325   8.323195   6.995837   5.876656
                   21         22         23         24         25
    21  C    0.000000
    22  C    1.339396   0.000000
    23  C    2.450405   1.477530   0.000000
    24  C    3.661215   2.450981   1.334883   0.000000
    25  H   25.468500  26.624964  27.918888  29.074759   0.000000
    26  H   24.543474  25.740762  26.988802  28.181577   1.869567
    27  H   23.474159  24.593592  25.921511  27.044208   2.403078
    28  H   22.066239  23.267389  24.510797  25.706634   3.788407
    29  H   21.020185  22.134454  23.466454  24.584845   4.686712
    30  H   19.614216  20.819754  22.057848  23.257066   6.097855
    31  H   18.580536  19.688172  21.025209  22.138202   7.079355
    32  H   17.162371  18.373255  19.604780  20.808008   8.489080
    33  H   16.145616  17.244291  18.587801  19.693712   9.501039
    34  H   14.711248  15.928802  17.151984  18.360049  10.908219
    35  H   13.715965  14.802024  16.154051  17.250380  11.935084
    36  H   12.263240  13.489497  14.701523  15.915652  13.338553
    37  H   11.293034  12.360503  13.723948  14.806923  14.377218
    38  H    9.821837  11.060254  12.256089  13.478313  15.772710
    39  H    8.881472   9.919718  11.298766  12.362439  16.826280
    40  H    7.392119   8.649018   9.818550  11.052471  18.207305
    41  H    6.495971   7.482789   8.883830   9.917809  19.281136
    42  H    4.985379   6.272696   7.392538   8.644754  20.641745
    43  H    4.187804   5.061943   6.495264   7.477846  21.739380
    44  H    2.653497   3.986860   4.987714   6.270461  23.077560
    45  H    2.223908   2.711258   4.185828   5.056502  24.197469
    46  H    1.087747   2.102513   2.654904   3.983819  25.517405
    47  H    2.104203   1.087666   2.222693   2.708321  26.652843
    48  H    2.713251   2.228199   1.086817   2.089624  27.973482
    49  H    4.014659   2.682994   2.112356   1.085968  29.129571
    50  H    4.546409   3.440598   2.099048   1.085280  30.012988
                   26         27         28         29         30
    26  H    0.000000
    27  H    3.067037   0.000000
    28  H    2.480316   3.175472   0.000000
    29  H    4.578039   2.462020   3.069571   0.000000
    30  H    4.935560   4.776275   2.455254   3.172015   0.000000
    31  H    6.670995   4.912025   4.562080   2.450006   3.069400
    32  H    7.391260   6.897624   4.910966   4.768028   2.455714
    33  H    8.947969   7.361056   6.650420   4.899040   4.561881
    34  H    9.847099   9.185317   7.366820   6.887255   4.911574
    35  H   11.299223   9.810664   8.926548   7.348655   6.651107
    36  H   12.301309  11.539507   9.821047   9.172782   7.365810
    37  H   13.688198  12.262789  11.278925   9.800788   8.929003
    38  H   14.751976  13.924710  12.271727  11.524333   9.816497
    39  H   16.099873  14.719139  13.669997  12.257142  11.283618
    40  H   17.198012  16.325977  14.717766  13.907046  12.262534
    41  H   18.526219  17.180127  16.083402  14.718126  13.676341
    42  H   19.640001  18.737113  17.159741  16.307154  14.704500
    43  H   20.961189  19.644146  18.509537  17.182134  16.089426
    44  H   22.080349  21.156431  19.600066  18.719558  17.144815
    45  H   23.399428  22.107914  20.941395  19.645895  18.512432
    46  H   24.522611  23.584390  22.042307  21.142964  19.587054
    47  H   25.837630  24.568748  23.374854  22.106732  20.939631
    48  H   26.979965  26.031451  24.499650  23.586826  22.044410
    49  H   28.299035  27.050825  25.832598  24.588828  23.392739
    50  H   29.087699  28.006393  26.609775  25.549649  24.156875
                   31         32         33         34         35
    31  H    0.000000
    32  H    3.171846   0.000000
    33  H    2.449038   3.069509   0.000000
    34  H    4.767297   2.455863   3.171657   0.000000
    35  H    4.898659   4.562595   2.449625   3.069676   0.000000
    36  H    6.885284   4.910106   4.766384   2.454245   3.171430
    37  H    7.350801   6.653102   4.901771   4.563460   2.452147
    38  H    9.168929   7.360797   6.883091   4.904938   4.765495
    39  H    9.807157   8.932668   7.358128   6.655000   4.908504
    40  H   11.518654   9.806832   9.165489   7.350971   6.881529
    41  H   12.268135  11.288395   9.819101   8.935136   7.369476
    42  H   13.900751  12.248790  11.515062   9.792928   9.164183
    43  H   14.732133  13.680396  12.283095  11.289803   9.833482
    44  H   16.302504  14.689102  13.899088  12.233252  11.515861
    45  H   17.195890  16.090160  14.746862  13.678413  12.297284
    46  H   18.719184  17.131352  16.305192  14.675538  13.904170
    47  H   19.656737  18.508534  17.207742  16.083722  14.758226
    48  H   21.158475  19.588739  18.737604  17.132982  16.325675
    49  H   22.138865  20.955409  19.689926  18.521903  17.240502
    50  H   23.106194  21.703813  20.665738  19.250949  18.227612
                   36         37         38         39         40
    36  H    0.000000
    37  H    3.069834   0.000000
    38  H    2.450693   3.171268   0.000000
    39  H    4.564070   2.456357   3.069894   0.000000
    40  H    4.896727   4.765123   2.446039   3.171284   0.000000
    41  H    6.655732   4.917338   4.564008   2.460992   3.069793
    42  H    7.338696   6.881667   4.888032   4.765654   2.442016
    43  H    8.934630   7.381373   6.654505   4.925070   4.563097
    44  H    9.779056   9.166404   7.328450   6.883974   4.882498
    45  H   11.286042   9.845240   8.930560   7.389020   6.651461
    46  H   12.221411  11.522074   9.770901   9.172120   7.325054
    47  H   13.670592  12.306278  11.278564   9.850175   8.925009
    48  H   14.678944  13.925202  12.228550  11.541712   9.782823
    49  H   16.095970  14.788683  13.683540  12.332730  11.293762
    50  H   16.800283  15.790951  14.354356  13.355419  11.915605
                   41         42         43         44         45
    41  H    0.000000
    42  H    3.171525   0.000000
    43  H    2.464112   3.069540   0.000000
    44  H    4.767060   2.440524   3.171916   0.000000
    45  H    4.928140   4.561628   2.464075   3.069244   0.000000
    46  H    6.887902   4.883164   4.768889   2.442681   3.172338
    47  H    7.389407   6.648547   4.925419   4.560882   2.461377
    48  H    9.188718   7.341030   6.900752   4.900601   4.777999
    49  H    9.872106   8.942830   7.408228   6.667499   4.944252
    50  H   10.922812   9.486259   8.499700   7.070324   6.103605
                   46         47         48         49         50
    46  H    0.000000
    47  H    3.069275   0.000000
    48  H    2.457937   3.175880   0.000000
    49  H    4.576581   2.482907   3.066813   0.000000
    50  H    4.682910   3.790236   2.402304   1.869671   0.000000
 Stoichiometry    C24H26
 Framework group  C1[X(C24H26)]
 Deg. of freedom   144
 Full point group                 C1      NOp   1
 Largest Abelian subgroup         C1      NOp   1
 Largest concise Abelian subgroup C1      NOp   1
                         Standard orientation:                         
 ---------------------------------------------------------------------
 Center     Atomic      Atomic             Coordinates (Angstroms)
 Number     Number       Type             X           Y           Z
 ---------------------------------------------------------------------
      1          6           0       14.060730   -0.319660    0.001094
      2          6           0       12.913509    0.363003    0.001641
      3          6           0       11.610379   -0.333051    0.001856
      4          6           0       10.462127    0.356726    0.002284
      5          6           0        9.157447   -0.337521    0.002381
      6          6           0        8.010295    0.354205    0.002477
      7          6           0        6.704174   -0.337259    0.002324
      8          6           0        5.558656    0.357249    0.001853
      9          6           0        4.250849   -0.330885    0.001346
     10          6           0        3.106874    0.366287    0.000181
     11          6           0        1.797914   -0.319483   -0.000663
     12          6           0        0.654476    0.378688   -0.002376
     13          6           0       -0.654164   -0.307570   -0.003343
     14          6           0       -1.798973    0.388401   -0.005082
     15          6           0       -3.105130   -0.302589   -0.005758
     16          6           0       -4.253576    0.387294   -0.006706
     17          6           0       -5.555085   -0.312600   -0.006613
     18          6           0       -6.708857    0.368148   -0.005968
     19          6           0       -8.004483   -0.342866   -0.004788
     20          6           0       -9.163850    0.328078   -0.002182
     21          6           0      -10.454024   -0.393033    0.000049
     22          6           0      -11.617588    0.270353    0.004289
     23          6           0      -12.903579   -0.457189    0.007172
     24          6           0      -14.067444    0.196497    0.012182
     25          1           0       15.007309    0.211119    0.000925
     26          1           0       14.068551   -1.405672    0.000798
     27          1           0       12.947732    1.449232    0.001904
     28          1           0       11.588280   -1.420526    0.001607
     29          1           0       10.485718    1.444195    0.002479
     30          1           0        9.133029   -1.424936    0.002247
     31          1           0        8.035713    1.441614    0.002511
     32          1           0        6.677315   -1.424631    0.002406
     33          1           0        5.586677    1.444583    0.001636
     34          1           0        4.221460   -1.418210    0.001726
     35          1           0        3.137069    1.453549   -0.000327
     36          1           0        1.767242   -1.406790    0.000009
     37          1           0        0.684955    1.465931   -0.003102
     38          1           0       -0.683420   -1.394924   -0.002533
     39          1           0       -1.771381    1.475717   -0.005802
     40          1           0       -3.129453   -1.390061   -0.005116
     41          1           0       -4.232373    1.474760   -0.007087
     42          1           0       -5.571447   -1.400210   -0.006500
     43          1           0       -6.696411    1.455754   -0.005696
     44          1           0       -8.011783   -1.430567   -0.005445
     45          1           0       -9.160156    1.415743   -0.001132
     46          1           0      -10.453944   -1.480779   -0.001349
     47          1           0      -11.620846    1.358013    0.005963
     48          1           0      -12.911059   -1.543979    0.005377
     49          1           0      -14.102572    1.281895    0.014241
     50          1           0      -15.000277   -0.358165    0.014356
 ---------------------------------------------------------------------
 Rotational constants (GHZ):           6.0165571           0.0220376           0.0219572
 Standard basis: 6-31G(d,p) (6D, 7F)
 There are   490 symmetry adapted cartesian basis functions of A   symmetry.
 There are   490 symmetry adapted basis functions of A   symmetry.
   490 basis functions,   854 primitive gaussians,   490 cartesian basis functions
    85 alpha electrons       85 beta electrons
       nuclear repulsion energy      1387.0689039799 Hartrees.
 NAtoms=   50 NActive=   50 NUniq=   50 SFac= 1.00D+00 NAtFMM=   60 NAOKFM=F Big=F
 Integral buffers will be    131072 words long.
 Raffenetti 2 integral format.
 Two-electron integral symmetry is turned on.
 One-electron integrals computed using PRISM.
 NBasis=   490 RedAO= T EigKep=  1.13D-03  NBF=   490
 NBsUse=   490 1.00D-06 EigRej= -1.00D+00 NBFU=   490
 ExpMin= 1.61D-01 ExpMax= 3.05D+03 ExpMxC= 4.57D+02 IAcc=3 IRadAn=         5 AccDes= 0.00D+00
 Harris functional with IExCor=  402 and IRadAn=       5 diagonalized for initial guess.
 HarFok:  IExCor=  402 AccDes= 0.00D+00 IRadAn=         5 IDoV= 1 UseB2=F ITyADJ=14
 ICtDFT=  3500011 ScaDFX=  1.000000  1.000000  1.000000  1.000000
 FoFCou: FMM=F IPFlag=           0 FMFlag=      100000 FMFlg1=           0
         NFxFlg=           0 DoJE=T BraDBF=F KetDBF=T FulRan=T
         wScrn=  0.000000 ICntrl=       500 IOpCl=  0 I1Cent=   200000004 NGrid=           0
         NMat0=    1 NMatS0=      1 NMatT0=    0 NMatD0=    1 NMtDS0=    0 NMtDT0=    0
 Petite list used in FoFCou.
 Requested convergence on RMS density matrix=1.00D-08 within 128 cycles.
 Requested convergence on MAX density matrix=1.00D-06.
 Requested convergence on             energy=1.00D-06.
 No special actions if energy rises.
 Integral accuracy reduced to 1.0D-05 until final iterations.
 Initial convergence to 1.0D-05 achieved.  Increase integral accuracy.
 SCF Done:  E(RB3LYP) =  -930.080948526     A.U. after   13 cycles
            NFock= 13  Conv=0.63D-08     -V/T= 2.0100

 **********************************************************************

            Population analysis using the SCF Density.

 **********************************************************************

 Orbital symmetries:
       Occupied  (A) (A) (A) (A) (A) (A) (A) (A) (A) (A) (A) (A)
                 (A) (A) (A) (A) (A) (A) (A) (A) (A) (A) (A) (A)
                 (A) (A) (A) (A) (A) (A) (A) (A) (A) (A) (A) (A)
                 (A) (A) (A) (A) (A) (A) (A) (A) (A) (A) (A) (A)
                 (A) (A) (A) (A) (A) (A) (A) (A) (A) (A) (A) (A)
                 (A) (A) (A) (A) (A) (A) (A) (A) (A) (A) (A) (A)
                 (A) (A) (A) (A) (A) (A) (A) (A) (A) (A) (A) (A)
                 (A)
       Virtual   (A) (A) (A) (A) (A) (A) (A) (A) (A) (A) (A) (A)
                 (A) (A) (A) (A) (A) (A) (A) (A) (A) (A) (A) (A)
                 (A) (A) (A) (A) (A) (A) (A) (A) (A) (A) (A) (A)
                 (A) (A) (A) (A) (A) (A) (A) (A) (A) (A) (A) (A)
                 (A) (A) (A) (A) (A) (A) (A) (A) (A) (A) (A) (A)
                 (A) (A) (A) (A) (A) (A) (A) (A) (A) (A) (A) (A)
                 (A) (A) (A) (A) (A) (A) (A) (A) (A) (A) (A) (A)
                 (A) (A) (A) (A) (A) (A) (A) (A) (A) (A) (A) (A)
                 (A) (A) (A) (A) (A) (A) (A) (A) (A) (A) (A) (A)
                 (A) (A) (A) (A) (A) (A) (A) (A) (A) (A) (A) (A)
                 (A) (A) (A) (A) (A) (A) (A) (A) (A) (A) (A) (A)
                 (A) (A) (A) (A) (A) (A) (A) (A) (A) (A) (A) (A)
                 (A) (A) (A) (A) (A) (A) (A) (A) (A) (A) (A) (A)
                 (A) (A) (A) (A) (A) (A) (A) (A) (A) (A) (A) (A)
                 (A) (A) (A) (A) (A) (A) (A) (A) (A) (A) (A) (A)
                 (A) (A) (A) (A) (A) (A) (A) (A) (A) (A) (A) (A)
                 (A) (A) (A) (A) (A) (A) (A) (A) (A) (A) (A) (A)
                 (A) (A) (A) (A) (A) (A) (A) (A) (A) (A) (A) (A)
                 (A) (A) (A) (A) (A) (A) (A) (A) (A) (A) (A) (A)
                 (A) (A) (A) (A) (A) (A) (A) (A) (A) (A) (A) (A)
                 (A) (A) (A) (A) (A) (A) (A) (A) (A) (A) (A) (A)
                 (A) (A) (A) (A) (A) (A) (A) (A) (A) (A) (A) (A)
                 (A) (A) (A) (A) (A) (A) (A) (A) (A) (A) (A) (A)
                 (A) (A) (A) (A) (A) (A) (A) (A) (A) (A) (A) (A)
                 (A) (A) (A) (A) (A) (A) (A) (A) (A) (A) (A) (A)
                 (A) (A) (A) (A) (A) (A) (A) (A) (A) (A) (A) (A)
                 (A) (A) (A) (A) (A) (A) (A) (A) (A) (A) (A) (A)
                 (A) (A) (A) (A) (A) (A) (A) (A) (A) (A) (A) (A)
                 (A) (A) (A) (A) (A) (A) (A) (A) (A) (A) (A) (A)
                 (A) (A) (A) (A) (A) (A) (A) (A) (A) (A) (A) (A)
                 (A) (A) (A) (A) (A) (A) (A) (A) (A) (A) (A) (A)
                 (A) (A) (A) (A) (A) (A) (A) (A) (A) (A) (A) (A)
                 (A) (A) (A) (A) (A) (A) (A) (A) (A) (A) (A) (A)
                 (A) (A) (A) (A) (A) (A) (A) (A) (A)
 The electronic state is 1-A.
 Alpha  occ. eigenvalues --  -10.19137 -10.19120 -10.19120 -10.19116 -10.19112
 Alpha  occ. eigenvalues --  -10.19107 -10.19102 -10.19097 -10.19093 -10.19087
 Alpha  occ. eigenvalues --  -10.19087 -10.19072 -10.19034 -10.19027 -10.19021
 Alpha  occ. eigenvalues --  -10.19015 -10.19010 -10.19006 -10.19005 -10.18991
 Alpha  occ. eigenvalues --  -10.18937 -10.18915 -10.17916 -10.17893  -0.82913
 Alpha  occ. eigenvalues --   -0.82572  -0.82016  -0.81249  -0.80277  -0.79106
 Alpha  occ. eigenvalues --   -0.77744  -0.76204  -0.74510  -0.72705  -0.70894
 Alpha  occ. eigenvalues --   -0.69389  -0.63440  -0.61633  -0.59398  -0.57103
 Alpha  occ. eigenvalues --   -0.57026  -0.56744  -0.56268  -0.55692  -0.55086
 Alpha  occ. eigenvalues --   -0.54978  -0.54286  -0.54109  -0.48579  -0.48196
 Alpha  occ. eigenvalues --   -0.47736  -0.46963  -0.45973  -0.45621  -0.44492
 Alpha  occ. eigenvalues --   -0.43668  -0.41960  -0.41502  -0.40639  -0.39816
 Alpha  occ. eigenvalues --   -0.39206  -0.38637  -0.38070  -0.37757  -0.37516
 Alpha  occ. eigenvalues --   -0.37385  -0.37056  -0.36567  -0.36108  -0.35510
 Alpha  occ. eigenvalues --   -0.35254  -0.34817  -0.34639  -0.34099  -0.33660
 Alpha  occ. eigenvalues --   -0.33104  -0.32936  -0.31838  -0.30308  -0.28520
 Alpha  occ. eigenvalues --   -0.26491  -0.24246  -0.21842  -0.19422  -0.17375
 Alpha virt. eigenvalues --   -0.07209  -0.05020  -0.02340   0.00415   0.03012
 Alpha virt. eigenvalues --    0.05299   0.07163   0.08259   0.08530   0.08763
 Alpha virt. eigenvalues --    0.09393   0.09557   0.09821   0.09941   0.09952
 Alpha virt. eigenvalues --    0.10607   0.11872   0.12607   0.12647   0.13351
 Alpha virt. eigenvalues --    0.13829   0.13951   0.14300   0.14418   0.14869
 Alpha virt. eigenvalues --    0.14949   0.15132   0.15460   0.15668   0.15991
 Alpha virt. eigenvalues --    0.16838   0.17115   0.18488   0.19688   0.19913
 Alpha virt. eigenvalues --    0.20086   0.21019   0.21059   0.25216   0.27121
 Alpha virt. eigenvalues --    0.29616   0.30654   0.30841   0.31678   0.32782
 Alpha virt. eigenvalues --    0.32995   0.33817   0.35532   0.35674   0.35732
 Alpha virt. eigenvalues --    0.36866   0.36907   0.37448   0.38279   0.40237
 Alpha virt. eigenvalues --    0.41264   0.41492   0.41896   0.42313   0.43384
 Alpha virt. eigenvalues --    0.44453   0.47320   0.48436   0.51668   0.51961
 Alpha virt. eigenvalues --    0.52234   0.52453   0.52667   0.53161   0.54089
 Alpha virt. eigenvalues --    0.55230   0.55763   0.56064   0.56569   0.56782
 Alpha virt. eigenvalues --    0.57929   0.58006   0.58115   0.58711   0.58888
 Alpha virt. eigenvalues --    0.58939   0.59188   0.59349   0.59879   0.59914
 Alpha virt. eigenvalues --    0.59952   0.60311   0.61140   0.61559   0.62023
 Alpha virt. eigenvalues --    0.62506   0.62539   0.63270   0.64266   0.64514
 Alpha virt. eigenvalues --    0.64972   0.65597   0.65804   0.66210   0.67174
 Alpha virt. eigenvalues --    0.67416   0.68569   0.68862   0.69744   0.69888
 Alpha virt. eigenvalues --    0.71330   0.71412   0.74134   0.74239   0.76223
 Alpha virt. eigenvalues --    0.76236   0.78602   0.78850   0.79410   0.80350
 Alpha virt. eigenvalues --    0.81607   0.82898   0.83569   0.84075   0.84504
 Alpha virt. eigenvalues --    0.84723   0.85073   0.85301   0.85523   0.86013
 Alpha virt. eigenvalues --    0.86458   0.86747   0.86953   0.87107   0.87446
 Alpha virt. eigenvalues --    0.87734   0.87954   0.88389   0.89402   0.89931
 Alpha virt. eigenvalues --    0.91098   0.91374   0.91620   0.92059   0.92889
 Alpha virt. eigenvalues --    0.93119   0.94485   0.95999   0.96925   0.99020
 Alpha virt. eigenvalues --    1.00948   1.02674   1.02709   1.03859   1.04004
 Alpha virt. eigenvalues --    1.05371   1.05765   1.06016   1.06842   1.06893
 Alpha virt. eigenvalues --    1.08292   1.09171   1.10186   1.10451   1.11083
 Alpha virt. eigenvalues --    1.14228   1.15170   1.16076   1.18521   1.19669
 Alpha virt. eigenvalues --    1.22447   1.24568   1.26023   1.28601   1.29510
 Alpha virt. eigenvalues --    1.29539   1.30168   1.30280   1.30494   1.30791
 Alpha virt. eigenvalues --    1.31069   1.31208   1.31246   1.31912   1.32311
 Alpha virt. eigenvalues --    1.32430   1.32847   1.33502   1.33531   1.33758
 Alpha virt. eigenvalues --    1.34424   1.34822   1.35919   1.36876   1.37930
 Alpha virt. eigenvalues --    1.38041   1.39346   1.40756   1.42260   1.43847
 Alpha virt. eigenvalues --    1.44855   1.45479   1.47098   1.48624   1.49659
 Alpha virt. eigenvalues --    1.49965   1.50948   1.51029   1.51707   1.51738
 Alpha virt. eigenvalues --    1.52070   1.53936   1.53960   1.76337   1.76475
 Alpha virt. eigenvalues --    1.76580   1.76589   1.76639   1.76934   1.77012
 Alpha virt. eigenvalues --    1.77564   1.77730   1.78445   1.78519   1.82419
 Alpha virt. eigenvalues --    1.83862   1.86138   1.86256   1.86277   1.89071
 Alpha virt. eigenvalues --    1.91475   1.92209   1.92237   1.92450   1.92798
 Alpha virt. eigenvalues --    1.93446   1.93623   1.94519   1.95169   1.95198
 Alpha virt. eigenvalues --    1.96040   1.96593   1.96793   1.98284   1.98341
 Alpha virt. eigenvalues --    1.99614   2.02989   2.03112   2.03954   2.05785
 Alpha virt. eigenvalues --    2.06043   2.08376   2.08690   2.08732   2.09116
 Alpha virt. eigenvalues --    2.10750   2.11471   2.11526   2.13234   2.15296
 Alpha virt. eigenvalues --    2.16297   2.17578   2.17637   2.18121   2.19055
 Alpha virt. eigenvalues --    2.19149   2.19752   2.21150   2.21586   2.22688
 Alpha virt. eigenvalues --    2.23508   2.23810   2.23890   2.25072   2.25502
 Alpha virt. eigenvalues --    2.27576   2.29742   2.30740   2.31990   2.34253
 Alpha virt. eigenvalues --    2.36313   2.37711   2.37746   2.41597   2.41622
 Alpha virt. eigenvalues --    2.44596   2.44679   2.44786   2.45712   2.46810
 Alpha virt. eigenvalues --    2.48118   2.48250   2.48535   2.49195   2.49541
 Alpha virt. eigenvalues --    2.49647   2.50724   2.51016   2.51243   2.52167
 Alpha virt. eigenvalues --    2.52449   2.52624   2.52973   2.54643   2.54784
 Alpha virt. eigenvalues --    2.55118   2.55656   2.56530   2.57269   2.57705
 Alpha virt. eigenvalues --    2.57979   2.60801   2.60945   2.61079   2.62244
 Alpha virt. eigenvalues --    2.62544   2.63749   2.63965   2.66035   2.66197
 Alpha virt. eigenvalues --    2.66377   2.66716   2.68435   2.68487   2.69975
 Alpha virt. eigenvalues --    2.69978   2.70690   2.70746   2.70755   2.71232
 Alpha virt. eigenvalues --    2.71840   2.72594   2.73125   2.75643   2.77034
 Alpha virt. eigenvalues --    2.78257   2.81031   2.82482   2.83338   2.84738
 Alpha virt. eigenvalues --    2.86985   2.87786   2.87798   2.90370   2.91126
 Alpha virt. eigenvalues --    2.91482   2.91948   2.92524   2.92648   2.92811
 Alpha virt. eigenvalues --    2.94026   2.94604   2.96217   2.96465   2.98052
 Alpha virt. eigenvalues --    2.98133   2.99382   2.99469   3.00007   3.00168
 Alpha virt. eigenvalues --    3.28034   3.28053   3.35201   3.35492   3.36022
 Alpha virt. eigenvalues --    3.36854   3.38001   3.39375   3.40894   3.42627
 Alpha virt. eigenvalues --    3.44743   3.47350   3.50415   3.51658   3.53640
 Alpha virt. eigenvalues --    3.54363   3.58031   3.59256   3.61900   3.62269
 Alpha virt. eigenvalues --    3.65288   3.65335   3.67599   3.67641   3.71054
 Alpha virt. eigenvalues --    3.71067   4.13713   4.13779   4.13890   4.14008
 Alpha virt. eigenvalues --    4.14179   4.14494   4.15030   4.15858   4.17046
 Alpha virt. eigenvalues --    4.18657   4.20712   4.24962   4.26402   4.30473
 Alpha virt. eigenvalues --    4.34836   4.39694   4.44956   4.50478   4.56059
 Alpha virt. eigenvalues --    4.61445   4.66360   4.70527   4.73698   4.75688
          Condensed to atoms (all electrons):
               1          2          3          4          5          6
     1  C    4.965724   0.618740  -0.031498   0.002695  -0.000276   0.000005
     2  C    0.618740   4.739885   0.421045  -0.019909   0.004047  -0.000268
     3  C   -0.031498   0.421045   4.861735   0.577802  -0.018491   0.002510
     4  C    0.002695  -0.019909   0.577802   4.868331   0.393019  -0.016449
     5  C   -0.000276   0.004047  -0.018491   0.393019   4.888029   0.563583
     6  C    0.000005  -0.000268   0.002510  -0.016449   0.563583   4.880534
     7  C   -0.000000   0.000002  -0.000255   0.003648  -0.017443   0.396274
     8  C   -0.000000  -0.000000   0.000004  -0.000256   0.002547  -0.017202
     9  C    0.000000   0.000000  -0.000000   0.000002  -0.000256   0.003673
    10  C    0.000000   0.000000  -0.000000  -0.000000   0.000004  -0.000256
    11  C   -0.000000   0.000000   0.000000   0.000000  -0.000000   0.000002
    12  C    0.000000  -0.000000   0.000000   0.000000  -0.000000  -0.000000
    13  C    0.000000   0.000000  -0.000000   0.000000   0.000000   0.000000
    14  C    0.000000   0.000000   0.000000  -0.000000   0.000000   0.000000
    15  C    0.000000   0.000000   0.000000   0.000000  -0.000000   0.000000
    16  C    0.000000   0.000000   0.000000   0.000000   0.000000  -0.000000
    17  C    0.000000   0.000000   0.000000   0.000000   0.000000   0.000000
    18  C    0.000000   0.000000   0.000000   0.000000   0.000000   0.000000
    19  C    0.000000   0.000000   0.000000   0.000000   0.000000   0.000000
    20  C    0.000000   0.000000   0.000000   0.000000   0.000000   0.000000
    21  C    0.000000   0.000000   0.000000   0.000000   0.000000   0.000000
    22  C    0.000000   0.000000   0.000000   0.000000   0.000000   0.000000
    23  C    0.000000   0.000000   0.000000   0.000000   0.000000   0.000000
    24  C    0.000000   0.000000   0.000000   0.000000   0.000000   0.000000
    25  H    0.369481  -0.020427   0.004038  -0.000224   0.000003  -0.000000
    26  H    0.382751  -0.035899  -0.012740   0.000562  -0.000000  -0.000000
    27  H   -0.051009   0.381932  -0.047485  -0.005763   0.000269  -0.000005
    28  H   -0.005159  -0.046690   0.379493  -0.051011  -0.009560   0.000548
    29  H    0.000488  -0.009089  -0.053632   0.381320  -0.048056  -0.005266
    30  H   -0.000003   0.000236  -0.005225  -0.047991   0.381064  -0.052647
    31  H    0.000000  -0.000004   0.000535  -0.009258  -0.053008   0.380904
    32  H    0.000000  -0.000000  -0.000004   0.000246  -0.005270  -0.047854
    33  H    0.000000   0.000000  -0.000000  -0.000004   0.000544  -0.009328
    34  H   -0.000000  -0.000000   0.000000  -0.000000  -0.000004   0.000247
    35  H    0.000000  -0.000000   0.000000   0.000000  -0.000000  -0.000004
    36  H   -0.000000   0.000000   0.000000  -0.000000   0.000000  -0.000000
    37  H    0.000000  -0.000000   0.000000  -0.000000   0.000000   0.000000
    38  H    0.000000   0.000000  -0.000000   0.000000   0.000000  -0.000000
    39  H    0.000000   0.000000   0.000000  -0.000000   0.000000  -0.000000
    40  H    0.000000   0.000000   0.000000   0.000000  -0.000000   0.000000
    41  H    0.000000   0.000000   0.000000   0.000000   0.000000  -0.000000
    42  H    0.000000   0.000000   0.000000   0.000000   0.000000   0.000000
    43  H    0.000000   0.000000   0.000000   0.000000   0.000000   0.000000
    44  H    0.000000   0.000000   0.000000   0.000000   0.000000   0.000000
    45  H    0.000000   0.000000   0.000000   0.000000   0.000000   0.000000
    46  H    0.000000   0.000000   0.000000   0.000000   0.000000   0.000000
    47  H    0.000000   0.000000   0.000000   0.000000   0.000000   0.000000
    48  H    0.000000   0.000000   0.000000   0.000000   0.000000   0.000000
    49  H    0.000000   0.000000   0.000000   0.000000   0.000000   0.000000
    50  H    0.000000   0.000000   0.000000   0.000000   0.000000   0.000000
               7          8          9         10         11         12
     1  C   -0.000000  -0.000000   0.000000   0.000000  -0.000000   0.000000
     2  C    0.000002  -0.000000   0.000000   0.000000   0.000000  -0.000000
     3  C   -0.000255   0.000004  -0.000000  -0.000000   0.000000   0.000000
     4  C    0.003648  -0.000256   0.000002  -0.000000   0.000000   0.000000
     5  C   -0.017443   0.002547  -0.000256   0.000004  -0.000000  -0.000000
     6  C    0.396274  -0.017202   0.003673  -0.000256   0.000002  -0.000000
     7  C    4.882502   0.564186  -0.017654   0.002570  -0.000255   0.000004
     8  C    0.564186   4.880353   0.397470  -0.017335   0.003665  -0.000255
     9  C   -0.017654   0.397470   4.881668   0.563872  -0.017603   0.002585
    10  C    0.002570  -0.017335   0.563872   4.880699   0.397833  -0.017501
    11  C   -0.000255   0.003665  -0.017603   0.397833   4.881143   0.563751
    12  C    0.000004  -0.000255   0.002585  -0.017501   0.563751   4.881173
    13  C   -0.000000   0.000002  -0.000255   0.003661  -0.017445   0.397907
    14  C   -0.000000  -0.000000   0.000004  -0.000256   0.002591  -0.017701
    15  C    0.000000   0.000000  -0.000000   0.000002  -0.000255   0.003659
    16  C    0.000000   0.000000  -0.000000  -0.000000   0.000004  -0.000256
    17  C   -0.000000   0.000000   0.000000   0.000000  -0.000000   0.000002
    18  C    0.000000  -0.000000   0.000000   0.000000  -0.000000  -0.000000
    19  C    0.000000   0.000000  -0.000000   0.000000   0.000000   0.000000
    20  C    0.000000   0.000000   0.000000  -0.000000   0.000000   0.000000
    21  C    0.000000   0.000000   0.000000   0.000000  -0.000000   0.000000
    22  C    0.000000   0.000000   0.000000   0.000000   0.000000  -0.000000
    23  C    0.000000   0.000000   0.000000   0.000000   0.000000   0.000000
    24  C    0.000000   0.000000   0.000000   0.000000   0.000000   0.000000
    25  H    0.000000  -0.000000   0.000000   0.000000   0.000000   0.000000
    26  H    0.000000   0.000000  -0.000000   0.000000  -0.000000   0.000000
    27  H   -0.000000   0.000000  -0.000000   0.000000   0.000000  -0.000000
    28  H   -0.000004  -0.000000   0.000000   0.000000  -0.000000   0.000000
    29  H    0.000253  -0.000004  -0.000000   0.000000  -0.000000   0.000000
    30  H   -0.009274   0.000539  -0.000004  -0.000000   0.000000   0.000000
    31  H   -0.047966  -0.005300   0.000252  -0.000004  -0.000000   0.000000
    32  H    0.380836  -0.052686  -0.009270   0.000537  -0.000004  -0.000000
    33  H   -0.052859   0.380828  -0.047964  -0.005308   0.000252  -0.000004
    34  H   -0.005281  -0.047852   0.380785  -0.052721  -0.009277   0.000537
    35  H    0.000543  -0.009320  -0.052828   0.380820  -0.047938  -0.005306
    36  H   -0.000004   0.000249  -0.005298  -0.047890   0.380793  -0.052782
    37  H   -0.000000  -0.000004   0.000540  -0.009288  -0.052769   0.380789
    38  H    0.000000  -0.000000  -0.000004   0.000252  -0.005319  -0.047963
    39  H    0.000000   0.000000  -0.000000  -0.000004   0.000535  -0.009246
    40  H    0.000000  -0.000000   0.000000  -0.000000  -0.000004   0.000255
    41  H    0.000000  -0.000000   0.000000   0.000000  -0.000000  -0.000003
    42  H   -0.000000   0.000000   0.000000  -0.000000   0.000000  -0.000000
    43  H    0.000000  -0.000000   0.000000  -0.000000   0.000000   0.000000
    44  H    0.000000   0.000000  -0.000000   0.000000   0.000000  -0.000000
    45  H    0.000000   0.000000   0.000000  -0.000000   0.000000  -0.000000
    46  H    0.000000   0.000000   0.000000   0.000000  -0.000000   0.000000
    47  H    0.000000   0.000000   0.000000   0.000000   0.000000  -0.000000
    48  H    0.000000   0.000000   0.000000   0.000000   0.000000   0.000000
    49  H    0.000000   0.000000   0.000000   0.000000   0.000000   0.000000
    50  H    0.000000   0.000000   0.000000   0.000000   0.000000   0.000000
              13         14         15         16         17         18
     1  C    0.000000   0.000000   0.000000   0.000000   0.000000   0.000000
     2  C    0.000000   0.000000   0.000000   0.000000   0.000000   0.000000
     3  C   -0.000000   0.000000   0.000000   0.000000   0.000000   0.000000
     4  C    0.000000  -0.000000   0.000000   0.000000   0.000000   0.000000
     5  C    0.000000   0.000000  -0.000000   0.000000   0.000000   0.000000
     6  C    0.000000   0.000000   0.000000  -0.000000   0.000000   0.000000
     7  C   -0.000000  -0.000000   0.000000   0.000000  -0.000000   0.000000
     8  C    0.000002  -0.000000   0.000000   0.000000   0.000000  -0.000000
     9  C   -0.000255   0.000004  -0.000000  -0.000000   0.000000   0.000000
    10  C    0.003661  -0.000256   0.000002  -0.000000   0.000000   0.000000
    11  C   -0.017445   0.002591  -0.000255   0.000004  -0.000000  -0.000000
    12  C    0.397907  -0.017701   0.003659  -0.000256   0.000002  -0.000000
    13  C    4.880603   0.563750  -0.017230   0.002590  -0.000255   0.000004
    14  C    0.563750   4.881747   0.397824  -0.017905   0.003662  -0.000256
    15  C   -0.017230   0.397824   4.880031   0.563872  -0.017005   0.002574
    16  C    0.002590  -0.017905   0.563872   4.882413   0.397457  -0.018013
    17  C   -0.000255   0.003662  -0.017005   0.397457   4.879573   0.564194
    18  C    0.000004  -0.000256   0.002574  -0.018013   0.564194   4.883350
    19  C   -0.000000   0.000002  -0.000255   0.003672  -0.016832   0.396262
    20  C   -0.000000  -0.000000   0.000004  -0.000256   0.002544  -0.017797
    21  C    0.000000   0.000000  -0.000000   0.000002  -0.000255   0.003653
    22  C    0.000000   0.000000  -0.000000  -0.000000   0.000004  -0.000255
    23  C   -0.000000   0.000000   0.000000   0.000000  -0.000000   0.000002
    24  C    0.000000  -0.000000   0.000000   0.000000  -0.000000  -0.000000
    25  H    0.000000   0.000000   0.000000   0.000000   0.000000   0.000000
    26  H    0.000000   0.000000   0.000000   0.000000   0.000000   0.000000
    27  H    0.000000   0.000000   0.000000   0.000000   0.000000   0.000000
    28  H   -0.000000   0.000000   0.000000   0.000000   0.000000   0.000000
    29  H    0.000000  -0.000000   0.000000   0.000000   0.000000   0.000000
    30  H   -0.000000   0.000000  -0.000000   0.000000   0.000000   0.000000
    31  H   -0.000000   0.000000   0.000000  -0.000000   0.000000   0.000000
    32  H    0.000000   0.000000  -0.000000   0.000000  -0.000000   0.000000
    33  H   -0.000000   0.000000  -0.000000   0.000000   0.000000  -0.000000
    34  H   -0.000004  -0.000000   0.000000   0.000000  -0.000000   0.000000
    35  H    0.000251  -0.000004  -0.000000   0.000000  -0.000000   0.000000
    36  H   -0.009299   0.000540  -0.000004  -0.000000   0.000000   0.000000
    37  H   -0.047876  -0.005293   0.000248  -0.000004  -0.000000   0.000000
    38  H    0.380835  -0.052867  -0.009337   0.000545  -0.000004  -0.000000
    39  H   -0.052685   0.380742  -0.047793  -0.005272   0.000244  -0.000003
    40  H   -0.005339  -0.048048   0.380885  -0.052951  -0.009379   0.000550
    41  H    0.000530  -0.009210  -0.052600   0.380707  -0.047723  -0.005249
    42  H   -0.000004   0.000258  -0.005348  -0.048108   0.380916  -0.053008
    43  H   -0.000000  -0.000003   0.000528  -0.009196  -0.052543   0.380733
    44  H    0.000000  -0.000000  -0.000004   0.000259  -0.005338  -0.048117
    45  H    0.000000   0.000000  -0.000000  -0.000003   0.000531  -0.009212
    46  H    0.000000  -0.000000   0.000000  -0.000000  -0.000004   0.000258
    47  H    0.000000  -0.000000   0.000000   0.000000  -0.000000  -0.000003
    48  H   -0.000000   0.000000   0.000000  -0.000000   0.000000  -0.000000
    49  H    0.000000  -0.000000   0.000000  -0.000000   0.000000   0.000000
    50  H    0.000000   0.000000   0.000000   0.000000  -0.000000   0.000000
              19         20         21         22         23         24
     1  C    0.000000   0.000000   0.000000   0.000000   0.000000   0.000000
     2  C    0.000000   0.000000   0.000000   0.000000   0.000000   0.000000
     3  C    0.000000   0.000000   0.000000   0.000000   0.000000   0.000000
     4  C    0.000000   0.000000   0.000000   0.000000   0.000000   0.000000
     5  C    0.000000   0.000000   0.000000   0.000000   0.000000   0.000000
     6  C    0.000000   0.000000   0.000000   0.000000   0.000000   0.000000
     7  C    0.000000   0.000000   0.000000   0.000000   0.000000   0.000000
     8  C    0.000000   0.000000   0.000000   0.000000   0.000000   0.000000
     9  C   -0.000000   0.000000   0.000000   0.000000   0.000000   0.000000
    10  C    0.000000  -0.000000   0.000000   0.000000   0.000000   0.000000
    11  C    0.000000   0.000000  -0.000000   0.000000   0.000000   0.000000
    12  C    0.000000   0.000000   0.000000  -0.000000   0.000000   0.000000
    13  C   -0.000000  -0.000000   0.000000   0.000000  -0.000000   0.000000
    14  C    0.000002  -0.000000   0.000000   0.000000   0.000000  -0.000000
    15  C   -0.000255   0.000004  -0.000000  -0.000000   0.000000   0.000000
    16  C    0.003672  -0.000256   0.000002  -0.000000   0.000000   0.000000
    17  C   -0.016832   0.002544  -0.000255   0.000004  -0.000000  -0.000000
    18  C    0.396262  -0.017797   0.003653  -0.000255   0.000002  -0.000000
    19  C    4.879788   0.563607  -0.016125   0.002498  -0.000268   0.000005
    20  C    0.563607   4.888811   0.392992  -0.018745   0.004057  -0.000277
    21  C   -0.016125   0.392992   4.867862   0.577842  -0.019709   0.002671
    22  C    0.002498  -0.018745   0.577842   4.862180   0.421041  -0.031584
    23  C   -0.000268   0.004057  -0.019709   0.421041   4.739646   0.618789
    24  C    0.000005  -0.000277   0.002671  -0.031584   0.618789   4.965942
    25  H    0.000000   0.000000   0.000000   0.000000   0.000000   0.000000
    26  H    0.000000   0.000000   0.000000   0.000000   0.000000   0.000000
    27  H    0.000000   0.000000   0.000000   0.000000   0.000000   0.000000
    28  H    0.000000   0.000000   0.000000   0.000000   0.000000   0.000000
    29  H    0.000000   0.000000   0.000000   0.000000   0.000000   0.000000
    30  H    0.000000   0.000000   0.000000   0.000000   0.000000   0.000000
    31  H    0.000000   0.000000   0.000000   0.000000   0.000000   0.000000
    32  H    0.000000   0.000000   0.000000   0.000000   0.000000   0.000000
    33  H    0.000000   0.000000   0.000000   0.000000   0.000000   0.000000
    34  H   -0.000000   0.000000   0.000000   0.000000   0.000000   0.000000
    35  H    0.000000  -0.000000   0.000000   0.000000   0.000000   0.000000
    36  H   -0.000000   0.000000  -0.000000   0.000000   0.000000   0.000000
    37  H   -0.000000   0.000000   0.000000  -0.000000   0.000000   0.000000
    38  H    0.000000   0.000000  -0.000000   0.000000  -0.000000   0.000000
    39  H   -0.000000   0.000000  -0.000000  -0.000000   0.000000  -0.000000
    40  H   -0.000004  -0.000000   0.000000   0.000000  -0.000000   0.000000
    41  H    0.000241  -0.000003  -0.000000   0.000000  -0.000000  -0.000000
    42  H   -0.009403   0.000553  -0.000004  -0.000000   0.000000   0.000000
    43  H   -0.047707  -0.005232   0.000239  -0.000003  -0.000000   0.000000
    44  H    0.380989  -0.053152  -0.009336   0.000545  -0.000004   0.000000
    45  H   -0.052518   0.380966  -0.047870  -0.005190   0.000231  -0.000003
    46  H   -0.005291  -0.048168   0.381369  -0.053729  -0.009148   0.000494
    47  H    0.000544  -0.009528  -0.050940   0.379437  -0.046638  -0.005132
    48  H   -0.000005   0.000271  -0.005772  -0.047522   0.381931  -0.051034
    49  H   -0.000000  -0.000000   0.000563  -0.012730  -0.035877   0.382743
    50  H   -0.000000   0.000003  -0.000223   0.004046  -0.020403   0.369457
              25         26         27         28         29         30
     1  C    0.369481   0.382751  -0.051009  -0.005159   0.000488  -0.000003
     2  C   -0.020427  -0.035899   0.381932  -0.046690  -0.009089   0.000236
     3  C    0.004038  -0.012740  -0.047485   0.379493  -0.053632  -0.005225
[...]
 0.00003679,-0.00000183,0.00013052,0.00023497,-0.00001272,-0.00028816,0
 .00099494,-0.00005633,-0.00467116,-0.00168732,0.00019284,0.06369084,0.
 00000136,-0.00000132,0.00000005,-0.00000017,0.00000231,-0.00000014,-0.
 00000045,-0.00000240,0.00000014,0.00000114,0.00000226,-0.00000015,-0.0
 0000183,-0.00000240,0.00000014,0.00000267,0.00000217,-0.00000016,-0.00
 000382,-0.00000253,0.00000016,0.00000517,0.00000192,-0.00000018,-0.000
 00719,-0.00000274,0.00000019,0.00000951,0.00000137,-0.00000012,-0.0000
 1326,-0.00000310,0.00000022,0.00001748,0.00000008,-0.00000042,-0.00002
 504,-0.00000371,0.00000038,0.00003329,-0.00000294,0.00000115,-0.000051
 46,-0.00000472,0.00000018,0.00006652,-0.00001583,-0.00000490,-0.000116
 53,-0.00000238,0.00000310,0.00009710,-0.00004621,0.00001493,-0.0003547
 2,0.00048150,-0.00003294,0.00215604,0.00080573,-0.00041768,-0.00061015
 ,-0.01102113,0.00096434,-0.03203097,-0.32063169,0.01719357,-0.00405864
 ,-0.01621719,0.00118456,-0.00122328,0.00113990,-0.00015359,0.00000029,
 0.,0.,-0.00000006,0.00000012,0.,-0.00000002,-0.00000028,0.00000002,0.0
 0000003,0.00000007,0.,-0.00000001,-0.00000031,0.00000003,0.00000003,0.
 00000008,0.,-0.00000001,-0.00000032,0.00000003,0.00000005,0.00000011,0
 .,-0.00000002,-0.00000030,0.00000004,0.00000008,0.00000018,0.00000002,
 -0.00000004,-0.00000022,0.00000005,0.00000017,0.00000033,0.,-0.0000001
 1,0.,0.00000006,0.00000041,0.00000070,0.00000008,-0.00000036,0.0000006
 3,0.00000006,0.00000130,0.00000164,-0.00000059,-0.00000109,0.00000276,
 0.00000006,0.00000444,0.00000310,0.00000090,-0.00001930,0.00000872,-0.
 00000005,0.00023592,0.00000060,0.00001952,-0.00088747,0.00063663,-0.00
 001643,-0.00165228,0.00032230,0.00054328,0.03490506,0.34424066,-0.0000
 0009,0.00000006,-0.00000028,0.00000001,-0.00000015,-0.00000006,0.00000
 002,0.00000014,-0.00000015,-0.00000007,-0.00000015,-0.00000015,0.00000
 010,0.00000013,-0.00000021,-0.00000015,-0.00000014,-0.00000015,0.00000
 022,0.00000014,-0.00000031,-0.00000030,-0.00000015,-0.00000052,0.00000
 041,0.00000014,-0.00000037,-0.00000055,-0.00000006,0.00000043,0.000000
 76,0.00000013,-0.00000094,-0.00000104,-0.00000031,-0.00000499,0.000001
 45,0.00000021,-0.00000019,-0.00000180,0.00000137,0.00001970,0.00000296
 ,-0.00000016,-0.00000734,-0.00000449,-0.00000445,-0.00008956,0.0000070
 0,0.00000228,0.00003614,-0.00000441,0.00001512,0.00021120,0.00002127,-
 0.00003668,-0.00010144,-0.00017808,-0.00039099,-0.00586052,0.00007238,
 0.00116323,0.00483429,0.00208498,0.01718439,-0.04004407,0.00023175,0.0
 0098488,0.00292327,0.00005279,-0.00016828,-0.00153109,-0.00000002,0.,0
 .00000010,0.,0.,0.00000012,0.,0.00000002,0.00000011,0.,0.,0.00000014,0
 .,0.00000003,0.00000016,0.,0.,0.00000019,0.,0.00000003,0.00000022,0.,0
 .,0.00000025,0.,0.00000004,0.00000034,0.,0.00000002,0.00000046,0.,0.00
 000004,0.00000052,0.,0.,0.00000043,0.00000001,0.00000006,0.00000098,-0
 .00000001,0.00000008,0.00000202,0.00000004,0.00000005,0.00000163,-0.00
 000014,-0.00000058,-0.00000789,0.00000011,0.00000003,0.00000366,-0.000
 00023,0.00000090,0.00001839,0.00000155,-0.00000042,0.00000573,-0.00001
 278,0.00001952,0.00034897,0.00005717,-0.00002884,0.00026849,0.00019073
 ,0.00054349,0.00911728,-0.00235970,-0.01947970,0.02619391,0.00000105,-
 0.00000086,0.00000004,-0.00000029,0.00000174,-0.00000010,0.,-0.0000016
 1,0.00000010,0.00000036,0.00000176,-0.00000011,-0.00000061,-0.00000156
 ,0.00000010,0.00000098,0.00000178,-0.00000012,-0.00000139,-0.00000158,
 0.00000010,0.00000193,0.00000175,-0.00000012,-0.00000263,-0.00000157,0
 .00000011,0.00000349,0.00000159,-0.00000012,-0.00000475,-0.00000150,0.
 00000012,0.00000618,0.00000116,-0.00000012,-0.00000852,-0.00000118,0.0
 0000012,0.00001110,0.00000013,-0.00000008,-0.00001508,-0.00000024,0.00
 000011,0.00002070,-0.00000242,-0.00000002,-0.00002710,0.00000108,0.000
 00004,0.00006049,-0.00001111,0.00000037,-0.00005727,-0.00008863,0.0000
 0558,-0.00007303,-0.00008323,0.00000417,0.00164183,0.00142857,-0.00010
 781,0.00471303,0.02632151,-0.00159830,-0.06206431,-0.03213478,0.002071
 73,-0.00143416,-0.03196072,0.00197095,0.00000023,-0.00000001,0.,-0.000
 00005,0.00000004,0.,-0.00000003,-0.00000027,0.00000002,0.,-0.00000002,
 0.,0.,-0.00000031,0.00000002,-0.00000002,-0.00000005,0.,0.,-0.00000035
 ,0.00000002,-0.00000003,-0.00000008,0.,0.00000002,-0.00000040,0.000000
 03,-0.00000005,-0.00000011,0.,0.00000003,-0.00000045,0.00000003,-0.000
 00009,-0.00000016,0.00000001,0.00000007,-0.00000052,0.00000003,-0.0000
 0019,-0.00000024,0.00000002,0.00000012,-0.00000063,0.00000004,-0.00000
 044,-0.00000046,0.00000004,0.00000052,-0.00000105,0.00000007,-0.000003
 33,-0.00000102,0.00000011,0.00000826,-0.00000360,0.00000020,-0.0000509
 0,-0.00001866,0.00000153,0.00004006,-0.00024279,0.00001508,-0.00028757
 ,-0.00089196,0.00005713,-0.00386912,0.00243966,-0.00009746,0.06503878,
 0.00001214,-0.00000880,0.00000044,-0.00000491,0.00001893,-0.00000111,0
 .00000396,-0.00001717,0.00000100,-0.00000147,0.00002045,-0.00000123,0.
 00000216,-0.00001769,0.00000104,-0.00000047,0.00002264,-0.00000137,0.0
 0000156,-0.00001937,0.00000114,0.00000046,0.00002543,-0.00000155,0.000
 00103,-0.00002184,0.00000129,0.00000176,0.00002923,-0.00000179,0.00000
 012,-0.00002552,0.00000151,0.00000404,0.00003446,-0.00000214,-0.000001
 80,-0.00003123,0.00000183,0.00000866,0.00004201,-0.00000262,-0.0000065
 6,-0.00004104,0.00000247,0.00002019,0.00005347,-0.00000362,-0.00001904
 ,-0.00006318,0.00000326,0.00004469,0.00007610,-0.00000396,-0.00001173,
 -0.00008858,0.00000416,0.00042995,0.00055059,-0.00004820,-0.00181648,0
 .00085454,-0.00013881,-0.00378682,-0.01699034,0.00123145,-0.03350755,-
 0.32099129,0.01706041,-0.00006059,-0.00947867,0.00088610,0.00000239,0.
 ,-0.00000001,-0.00000045,0.00000031,0.,-0.00000027,-0.00000287,0.00000
 018,0.,-0.00000028,0.00000002,0.00000003,-0.00000345,0.00000021,-0.000
 00008,-0.00000054,0.00000004,0.00000009,-0.00000401,0.00000025,-0.0000
 0009,-0.00000079,0.00000006,0.00000015,-0.00000469,0.00000030,-0.00000
 009,-0.00000105,0.00000008,0.00000023,-0.00000555,0.00000036,-0.000000
 07,-0.00000133,0.00000011,0.00000034,-0.00000665,0.00000043,0.00000006
 ,-0.00000156,0.00000015,0.00000047,-0.00000806,0.00000054,0.00000052,-
 0.00000152,0.00000019,0.00000039,-0.00000973,0.00000066,0.00000266,-0.
 00000026,0.00000025,-0.00000218,-0.00001168,0.00000104,0.00003908,0.00
 000510,0.00000007,-0.00025401,0.00010374,0.00000190,0.00104925,0.00067
 978,-0.00003466,0.00262672,-0.00063705,0.00024208,0.03690426,0.3438643
 8,-0.00000074,0.00000052,-0.00000025,0.00000030,-0.00000116,0.,-0.0000
 0024,0.00000104,-0.00000018,0.00000009,-0.00000125,-0.00000004,-0.0000
 0013,0.00000107,-0.00000023,0.00000002,-0.00000139,-0.00000008,-0.0000
 0009,0.00000116,-0.00000030,-0.00000004,-0.00000156,-0.00000015,-0.000
 00005,0.00000131,-0.00000042,-0.00000013,-0.00000179,-0.00000022,0.000
 00002,0.00000152,-0.00000060,-0.00000029,-0.00000213,-0.00000054,0.000
 00016,0.00000183,-0.00000116,-0.00000060,-0.00000256,-0.00000029,0.000
 00049,0.00000243,-0.00000087,-0.00000138,-0.00000347,-0.00000421,0.000
 00125,0.00000312,-0.00001148,-0.00000299,-0.00000359,0.00001562,0.0000
 0095,0.00000466,-0.00002123,-0.00002678,-0.00004482,-0.00019889,0.0000
 8787,-0.00016020,-0.00163711,0.00021715,0.00103308,0.00295487,0.002154
 52,0.01705134,-0.04275895,0.00004743,0.00109629,0.00514366,-0.00000014
 ,0.,0.00000009,0.00000003,-0.00000001,0.00000010,0.00000002,0.00000018
 ,0.00000008,0.,0.00000002,0.00000011,0.,0.00000022,0.00000011,0.,0.000
 00004,0.00000015,0.,0.00000025,0.00000015,0.,0.00000006,0.00000021,0.,
 0.00000030,0.00000022,0.,0.00000008,0.00000032,-0.00000001,0.00000036,
 0.00000034,0.,0.00000011,0.00000050,-0.00000002,0.00000044,0.00000054,
 0.,0.00000015,0.00000091,-0.00000002,0.00000055,0.00000097,-0.00000002
 ,0.00000019,0.00000160,-0.00000002,0.00000067,0.00000124,-0.00000011,0
 .00000028,0.00000421,0.00000011,0.00000105,0.00000534,-0.00000195,0.00
 000046,0.00001060,0.00001576,0.00000182,0.00010721,-0.00005992,-0.0000
 2187,0.00022134,-0.00010874,0.00024333,0.00365091,-0.00247388,-0.01933
 102,0.02848615,0.00000193,-0.00000133,0.00000007,-0.00000086,0.0000029
 4,-0.00000017,0.00000071,-0.00000258,0.00000015,-0.00000042,0.00000310
 ,-0.00000019,0.00000055,-0.00000256,0.00000015,-0.00000045,0.00000334,
 -0.00000020,0.00000067,-0.00000267,0.00000015,-0.00000061,0.00000361,-
 0.00000021,0.00000094,-0.00000282,0.00000016,-0.00000093,0.00000395,-0
 .00000024,0.00000139,-0.00000301,0.00000017,-0.00000148,0.00000434,-0.
 00000025,0.00000213,-0.00000322,0.00000017,-0.00000238,0.00000469,-0.0
 0000031,0.00000326,-0.00000344,0.00000018,-0.00000336,0.00000484,-0.00
 000011,0.00000528,-0.00000324,0.00000010,-0.00000392,0.00000257,-0.000
 00082,0.00002444,0.00000014,0.00000008,0.00003791,0.00007480,-0.000002
 64,-0.00013705,0.00020774,-0.00001209,0.00179078,-0.00183597,0.0000503
 9,-0.00027733,-0.03090928,0.00189658,-0.06603646,-0.04139749,0.0027126
 5,0.00000038,-0.00000001,0.,-0.00000008,0.00000004,0.,-0.00000005,-0.0
 0000045,0.00000003,0.,-0.00000006,0.,0.,-0.00000053,0.00000003,-0.0000
 0002,-0.00000010,0.,0.,-0.00000060,0.00000004,-0.00000002,-0.00000015,
 0.00000001,0.,-0.00000068,0.00000004,-0.00000001,-0.00000019,0.0000000
 1,0.,-0.00000076,0.00000005,0.,-0.00000024,0.00000002,-0.00000004,-0.0
 0000084,0.00000005,0.00000005,-0.00000026,0.00000002,-0.00000011,-0.00
 000085,0.00000006,0.00000018,-0.00000018,0.00000003,-0.00000040,-0.000
 00058,0.00000005,0.00000130,0.00000042,-0.00000009,-0.00000319,0.00000
 097,0.,0.00001041,0.00000312,-0.00000015,-0.00005020,0.00003377,-0.000
 00168,0.00013379,0.00023401,-0.00001276,-0.00023327,0.00095427,-0.0000
 5409,-0.00467693,-0.00158885,0.00019891,0.06277813,-0.00000111,0.00000
 055,-0.00000004,0.00000073,-0.00000160,0.00000009,-0.00000094,0.000001
 16,-0.00000007,0.00000102,-0.00000180,0.00000009,-0.00000153,0.0000011
 4,-0.00000007,0.00000186,-0.00000209,0.00000010,-0.00000270,0.00000117
 ,-0.00000007,0.00000334,-0.00000251,0.00000012,-0.00000471,0.00000120,
 -0.00000006,0.00000587,-0.00000315,0.00000011,-0.00000822,0.00000120,-
 0.00000004,0.00001038,-0.00000420,0.00000021,-0.00001463,0.00000105,-0
 .00000003,0.00001880,-0.00000606,-0.00000013,-0.00002729,0.00000055,0.
 00000012,0.00003586,-0.00000969,0.00000177,-0.00005651,-0.00000058,-0.
 00000014,0.00007287,-0.00002320,-0.00000538,-0.00013024,-0.00000160,0.
 00000323,0.00011726,-0.00005895,0.00002215,-0.00034313,0.00043039,-0.0
 0002796,0.00220984,0.00097280,-0.00051724,-0.00077491,-0.00964613,0.00
 087026,-0.04484195,-0.32998861,0.01819209,-0.00000021,0.00000001,0.,0.
 00000004,0.00000004,0.,0.00000004,0.00000031,-0.00000001,0.00000003,0.
 00000012,0.,0.,0.00000038,-0.00000001,0.00000004,0.00000018,0.,-0.0000
 0001,0.00000046,-0.00000002,0.00000006,0.00000025,0.,-0.00000002,0.000
 00056,-0.00000002,0.00000009,0.00000035,0.,-0.00000004,0.00000071,-0.0
 0000002,0.00000014,0.00000052,0.,-0.00000007,0.00000096,-0.00000002,0.
 00000026,0.00000079,-0.00000002,-0.00000015,0.00000138,-0.00000001,0.0
 0000056,0.00000133,0.00000007,-0.00000035,0.00000227,-0.00000002,0.000
 00156,0.00000251,-0.00000071,-0.00000092,0.00000469,-0.00000002,0.0000
 0494,0.00000405,0.00000069,-0.00001444,0.00000788,-0.00000019,0.000219
 89,-0.00001759,0.00002001,-0.00096723,0.00054555,-0.00000899,-0.001886
 68,0.00088683,0.00062051,0.05160033,0.34909235,0.00000005,-0.00000004,
 -0.00000025,-0.00000004,0.00000007,-0.00000007,0.00000005,-0.00000006,
 -0.00000012,-0.00000006,0.00000008,-0.00000013,0.00000009,-0.00000006,
 -0.00000017,-0.00000011,0.00000009,-0.00000020,0.00000016,-0.00000007,
 -0.00000023,-0.00000020,0.00000012,-0.00000020,0.00000028,-0.00000008,
 -0.00000036,-0.00000035,0.00000013,-0.00000063,0.00000048,-0.00000008,
 -0.00000042,-0.00000061,0.00000025,0.00000046,0.00000086,-0.00000011,-
 0.00000107,-0.00000116,-0.00000003,-0.00000607,0.00000162,-0.00000003,
 -0.00000040,-0.00000198,0.00000197,0.00002345,0.00000331,-0.00000049,-
 0.00000909,-0.00000506,-0.00000492,-0.00010420,0.00000794,0.00000237,0
 .00003758,-0.00000520,0.00002243,0.00031984,0.00002113,-0.00003159,-0.
 00006902,-0.00019357,-0.00049058,-0.00733288,0.00007952,0.00106880,0.0
 0463677,0.00292035,0.01816942,-0.03430233,0.00000001,0.,0.00000010,0.,
 0.,0.00000011,0.,0.,0.00000010,0.,0.,0.00000012,0.,-0.00000001,0.00000
 014,0.,0.,0.00000016,0.,-0.00000001,0.00000019,0.,0.,0.00000023,0.,-0.
 00000001,0.00000027,0.,0.,0.00000030,0.,-0.00000001,0.00000040,0.,0.,0
 .00000055,0.,-0.00000001,0.00000063,-0.00000001,-0.00000001,0.00000053
 ,0.00000002,0.,0.00000117,-0.00000002,0.00000008,0.00000259,0.00000004
 ,-0.00000001,0.00000196,-0.00000016,-0.00000070,-0.00000898,0.00000010
 ,-0.00000004,0.00000421,-0.00000026,0.00000070,0.00001593,0.00000122,-
 0.00000051,0.00000322,-0.00001191,0.00001992,0.00033720,0.00006178,-0.
 00002165,0.00029162,0.00021687,0.00061854,0.01093256,-0.00338186,-0.02
 007919,0.02296672,-0.00000995,0.00000706,-0.00000036,0.00000418,-0.000
 01544,0.00000090,-0.00000349,0.00001380,-0.00000081,0.00000163,-0.0000
 1664,0.00000099,-0.00000236,0.00001408,-0.00000083,0.00000127,-0.00001
 835,0.00000110,-0.00000242,0.00001523,-0.00000090,0.00000128,-0.000020
 52,0.00000123,-0.00000296,0.00001687,-0.00000100,0.00000157,-0.0000234
 4,0.00000141,-0.00000395,0.00001918,-0.00000113,0.00000220,-0.00002741
 ,0.00000161,-0.00000575,0.00002249,-0.00000132,0.00000326,-0.00003306,
 0.00000206,-0.00000954,0.00002789,-0.00000165,0.00000350,-0.00004299,0
 .00000213,-0.00002096,0.00004225,-0.00000235,-0.00001284,-0.00007709,0
 .00000676,-0.00009187,0.00014087,-0.00000838,-0.00025907,-0.00036312,0
 .00001405,-0.00062583,0.00134173,-0.00007527,-0.00265767,-0.00421837,0
 .00034842,-0.01873123,0.02049404,-0.00108482,-0.23760277,0.13691042,-0
 .00689518,-0.00000196,0.00000002,0.00000001,0.00000038,-0.00000021,0.0
 0000001,0.00000023,0.00000238,-0.00000014,0.00000003,0.00000029,-0.000
 00002,-0.00000002,0.00000286,-0.00000017,0.00000010,0.00000053,-0.0000
 0003,-0.00000007,0.00000333,-0.00000020,0.00000012,0.00000078,-0.00000
 005,-0.00000012,0.00000390,-0.00000023,0.00000016,0.00000107,-0.000000
 06,-0.00000019,0.00000462,-0.00000028,0.00000021,0.00000141,-0.0000000
 9,-0.00000029,0.00000555,-0.00000033,0.00000028,0.00000185,-0.00000010
 ,-0.00000041,0.00000682,-0.00000040,0.00000045,0.00000235,-0.00000016,
 -0.00000056,0.00000863,-0.00000050,0.00000084,0.00000254,0.,0.00000077
 ,0.00001161,-0.00000070,0.00000132,-0.00000142,-0.00000041,0.00001603,
 0.00001723,-0.00000098,0.00000530,-0.00007357,0.00000536,0.00012910,0.
 00012628,-0.00001034,0.00102864,-0.00009385,-0.00004680,0.00663538,-0.
 00522783,0.00028668,0.25220803,0.00000022,0.00000003,-0.00000002,-0.00
 000034,0.00000009,0.,0.00000043,0.00000009,-0.00000001,-0.00000073,-0.
 00000004,0.,0.00000094,0.00000030,-0.00000003,-0.00000144,-0.00000020,
 0.00000002,0.00000182,0.00000059,-0.00000006,-0.00000264,-0.00000043,0
 .00000002,0.00000331,0.00000104,-0.00000010,-0.00000467,-0.00000076,0.
 00000010,0.00000587,0.00000178,-0.00000018,-0.00000826,-0.00000130,-0.
 00000008,0.00001049,0.00000312,-0.00000024,-0.00001492,-0.00000218,0.0
 0000101,0.00001915,0.00000609,-0.00000076,-0.00002869,-0.00000484,-0.0
 0000358,0.00003636,0.00001523,-0.00000061,-0.00006726,-0.00001734,0.00
 002007,0.00006303,0.00006439,-0.00000878,-0.00028002,-0.00012545,-0.00
 007802,-0.00016792,0.00079415,-0.00003294,-0.00209890,-0.00088038,0.00
 076742,-0.01242636,0.01062921,-0.00030727,0.14142057,-0.16558096,0.007
 17333,0.00000002,-0.00000003,0.,-0.00000001,0.00000001,0.,-0.00000001,
 0.,0.,0.,0.,0.,-0.00000002,0.00000002,0.,0.,-0.00000001,0.,-0.00000004
 ,0.00000006,0.,0.,-0.00000002,0.00000001,-0.00000006,0.00000012,0.,0.0
 0000002,-0.00000002,0.00000002,-0.00000010,0.00000021,0.,0.00000004,-0
 .00000002,0.00000001,-0.00000018,0.00000039,0.,0.00000008,0.,0.0000000
 8,-0.00000035,0.00000072,0.,0.00000021,0.00000003,-0.00000014,-0.00000
 089,0.00000149,0.00000003,0.00000067,0.00000029,0.00000135,-0.00000166
 ,0.00000336,-0.00000015,0.00000014,-0.00000163,-0.00000439,-0.00000657
 ,0.00001050,0.00000093,0.00008502,-0.00000853,0.00000874,-0.00037549,0
 .00039736,-0.00003860,0.00023581,0.00122780,-0.00049364,0.02261996,-0.
 01219796,0.00072535,-0.14901663,0.16566365,0.00000005,-0.00000006,-0.0
 0000021,0.,0.00000009,-0.00000006,0.,-0.00000010,-0.00000010,0.0000000
 3,0.00000010,-0.00000012,-0.00000004,-0.00000012,-0.00000013,0.0000000
 8,0.00000013,-0.00000012,-0.00000010,-0.00000015,-0.00000019,0.0000001
 5,0.00000014,-0.00000037,-0.00000018,-0.00000019,-0.00000021,0.0000002
 7,0.00000023,0.00000040,-0.00000033,-0.00000027,-0.00000053,0.00000046
 ,0.00000004,-0.00000356,-0.00000059,-0.00000032,0.00000024,0.00000096,
 0.00000113,0.00001284,-0.00000112,-0.00000082,-0.00000439,0.00000126,-
 0.00000349,-0.00006716,-0.00000199,-0.00000065,0.00000918,0.00000617,0
 .00002014,0.00030691,-0.00000369,-0.00000929,-0.00007368,0.00000903,-0
 .00007748,-0.00144544,0.00001575,-0.00004289,0.00023193,0.00022062,0.0
 0078138,0.01156872,0.00090022,-0.00052417,0.00420120,-0.00716712,0.007
 20304,-0.03154981,0.00000001,0.,0.00000008,0.,0.,0.00000010,0.,-0.0000
 0001,0.00000009,0.,0.,0.00000010,0.,-0.00000001,0.00000011,0.,0.,0.000
 00014,0.,-0.00000002,0.00000015,0.,0.,0.00000017,0.,-0.00000002,0.0000
 0021,0.,0.00000001,0.00000030,0.,-0.00000003,0.00000029,0.,0.,0.000000
 19,0.00000002,-0.00000003,0.00000047,0.,0.00000007,0.00000141,0.000000
 03,-0.00000005,0.00000062,-0.00000003,-0.00000015,-0.00000226,0.000000
 07,-0.00000004,0.00000183,0.00000010,0.00000134,0.00002273,0.00000010,
 -0.00000024,0.00000063,-0.00000051,-0.00000438,-0.00007420,0.00000046,
 0.00000077,0.00002513,-0.00000420,0.00000978,0.00014507,0.00001992,-0.
 00004191,-0.00028148,-0.00006668,-0.00049146,-0.00690297,-0.00139249,0
 .00090885,0.00225771,0.00746329,-0.00772892,0.02161805\\0.00001705,0.0
 0000537,-0.00000044,0.00000389,-0.00000396,0.00000020,-0.00001120,0.00
 000686,-0.00000034,0.00000842,-0.00000562,0.00000027,-0.00001129,0.000
 00701,-0.00000037,0.00000581,-0.00000314,0.00000013,-0.00000256,0.0000
 0520,-0.00000033,-0.00000244,-0.00000311,0.00000017,0.00000856,0.00000
 543,-0.00000042,-0.00001176,-0.00000404,0.00000029,0.00001588,0.000005
 44,-0.00000046,-0.00001695,-0.00000495,0.00000040,0.00001700,0.0000049
 6,-0.00000040,-0.00001581,-0.00000547,0.00000046,0.00001176,0.00000406
 ,-0.00000027,-0.00000857,-0.00000548,0.00000045,0.00000247,0.00000308,
 -0.00000012,0.00000242,-0.00000522,0.00000038,-0.00000561,0.00000303,-
 0.00000007,0.00001112,-0.00000702,0.00000043,-0.00000818,0.00000550,-0
 .00000023,0.00001108,-0.00000682,0.00000035,-0.00000366,0.00000398,-0.
 00000015,-0.00001724,-0.00000538,0.00000049,-0.00000243,-0.00000302,0.
 00000020,-0.00000477,-0.00000144,0.00000012,-0.00000295,0.00000104,-0.
 00000004,0.00000342,-0.00000338,0.00000019,-0.00000377,0.00000335,-0.0
 0000017,0.00000311,-0.00000369,0.00000022,-0.00000387,0.00000233,-0.00
 000009,0.00000265,-0.00000302,0.00000020,-0.00000258,0.00000197,-0.000
 00006,0.00000156,-0.00000264,0.00000019,-0.00000134,0.00000190,-0.0000
 0007,0.00000076,-0.00000231,0.00000016,-0.00000067,0.00000204,-0.00000
 010,0.00000064,-0.00000204,0.00000011,-0.00000077,0.00000231,-0.000000
 16,0.00000129,-0.00000188,0.00000005,-0.00000156,0.00000267,-0.0000002
 2,0.00000254,-0.00000192,0.,-0.00000267,0.00000308,-0.00000025,0.00000
 384,-0.00000227,0.00000002,-0.00000314,0.00000372,-0.00000028,0.000003
 75,-0.00000330,0.00000012,-0.00000346,0.00000338,-0.00000023,0.0000029
 2,-0.00000104,0.,0.00000481,0.00000142,-0.00000015,0.00000248,0.000003
 03,-0.00000020\\\@


 WHEN ALL ELSE FAILS, LOOK AT THE SCHRODINGER EQUATION.
     -- RUSSELL T. PACK, APRIL 1978
 Job cpu time:       0 days  2 hours 30 minutes 37.4 seconds.
 Elapsed time:       0 days  0 hours 37 minutes 39.6 seconds.
 File lengths (MBytes):  RWF=   1141 Int=      0 D2E=      0 Chk=     49 Scr=      1
 Normal termination of Gaussian 16 at Thu Nov  9 22:46:02 2023.
