 Entering Gaussian System, Link 0=g16
 Input=./com/12.com
 Output=./log/12.log
 Initial command:
 /home/shohei/gaussian/g16/l1.exe "/home/shohei/gaussian/scratch/Gau-26421.inp" -scrdir="/home/shohei/gaussian/scratch/"
 Entering Link 1 = /home/shohei/gaussian/g16/l1.exe PID=     26423.
  
 Copyright (c) 1988-2017, Gaussian, Inc.  All Rights Reserved.
  
 This is part of the Gaussian(R) 16 program.  It is based on
 the Gaussian(R) 09 system (copyright 2009, Gaussian, Inc.),
 the Gaussian(R) 03 system (copyright 2003, Gaussian, Inc.),
 the Gaussian(R) 98 system (copyright 1998, Gaussian, Inc.),
 the Gaussian(R) 94 system (copyright 1995, Gaussian, Inc.),
 the Gaussian 92(TM) system (copyright 1992, Gaussian, Inc.),
 the Gaussian 90(TM) system (copyright 1990, Gaussian, Inc.),
 the Gaussian 88(TM) system (copyright 1988, Gaussian, Inc.),
 the Gaussian 86(TM) system (copyright 1986, Carnegie Mellon
 University), and the Gaussian 82(TM) system (copyright 1983,
 Carnegie Mellon University). Gaussian is a federally registered
 trademark of Gaussian, Inc.
  
 This software contains proprietary and confidential information,
 including trade secrets, belonging to Gaussian, Inc.
  
 This software is provided under written license and may be
 used, copied, transmitted, or stored only in accord with that
 written license.
  
 The following legend is applicable only to US Government
 contracts under FAR:
  
                    RESTRICTED RIGHTS LEGEND
  
 Use, reproduction and disclosure by the US Government is
 subject to restrictions as set forth in subparagraphs (a)
 and (c) of the Commercial Computer Software - Restricted
 Rights clause in FAR 52.227-19.
  
 Gaussian, Inc.
 340 Quinnipiac St., Bldg. 40, Wallingford CT 06492
  
  
 ---------------------------------------------------------------
 Warning -- This program may not be used in any manner that
 competes with the business of Gaussian, Inc. or will provide
 assistance to any competitor of Gaussian, Inc.  The licensee
 of this program is prohibited from giving any competitor of
 Gaussian, Inc. access to this program.  By using this program,
 the user acknowledges that Gaussian, Inc. is engaged in the
 business of creating and licensing software in the field of
 computational chemistry and represents and warrants to the
 licensee that it is not a competitor of Gaussian, Inc. and that
 it will not use this program in any manner prohibited above.
 ---------------------------------------------------------------
  

 Cite this work as:
 Gaussian 16, Revision B.01,
 M. J. Frisch, G. W. Trucks, H. B. Schlegel, G. E. Scuseria, 
 M. A. Robb, J. R. Cheeseman, G. Scalmani, V. Barone, 
 G. A. Petersson, H. Nakatsuji, X. Li, M. Caricato, A. V. Marenich, 
 J. Bloino, B. G. Janesko, R. Gomperts, B. Mennucci, H. P. Hratchian, 
 J. V. Ortiz, A. F. Izmaylov, J. L. Sonnenberg, D. Williams-Young, 
 F. Ding, F. Lipparini, F. Egidi, J. Goings, B. Peng, A. Petrone, 
 T. Henderson, D. Ranasinghe, V. G. Zakrzewski, J. Gao, N. Rega, 
 G. Zheng, W. Liang, M. Hada, M. Ehara, K. Toyota, R. Fukuda, 
 J. Hasegawa, M. Ishida, T. Nakajima, Y. Honda, O. Kitao, H. Nakai, 
 T. Vreven, K. Throssell, J. A. Montgomery, Jr., J. E. Peralta, 
 F. Ogliaro, M. J. Bearpark, J. J. Heyd, E. N. Brothers, K. N. Kudin, 
 V. N. Staroverov, T. A. Keith, R. Kobayashi, J. Normand, 
 K. Raghavachari, A. P. Rendell, J. C. Burant, S. S. Iyengar, 
 J. Tomasi, M. Cossi, J. M. Millam, M. Klene, C. Adamo, R. Cammi, 
 J. W. Ochterski, R. L. Martin, K. Morokuma, O. Farkas, 
 J. B. Foresman, and D. J. Fox, Gaussian, Inc., Wallingford CT, 2016.
 
 ******************************************
 Gaussian 16:  EM64L-G16RevB.01 20-Dec-2017
                28-Oct-2023 
 ******************************************
 %chk=./chk/12.chk
 ---------------------------
 # B3LYP/6-31G(d,p) OPT FREQ
 ---------------------------
 1/18=20,19=15,26=3,38=1/1,3;
 2/9=110,12=2,17=6,18=5,40=1/2;
 3/5=1,6=6,7=101,11=2,25=1,30=1,71=1,74=-5/1,2,3;
 4//1;
 5/5=2,38=5/2;
 6/7=2,8=2,9=2,10=2,28=1/1;
 7//1,2,3,16;
 1/18=20,19=15,26=3/3(2);
 2/9=110/2;
 99//99;
 2/9=110/2;
 3/5=1,6=6,7=101,11=2,25=1,30=1,71=1,74=-5/1,2,3;
 4/5=5,16=3,69=1/1;
 5/5=2,38=5/2;
 7//1,2,3,16;
 1/18=20,19=15,26=3/3(-5);
 2/9=110/2;
 6/7=2,8=2,9=2,10=2,19=2,28=1/1;
 99/9=1/99;
 ------
 12poly
 ------
 Symbolic Z-matrix:
 Charge =  0 Multiplicity = 1
 C                     2.48617  -0.02484  -0.89874 
 C                     3.37051   0.21575  -1.87599 
 C                     4.7474   -0.34206  -1.94633 
 C                     5.28756  -1.16947  -1.02666 
 C                     6.66476  -1.73292  -1.08705 
 C                     7.55643  -1.49153  -2.07141 
 C                     8.93435  -2.05191  -2.13437 
 C                     9.48021  -2.87709  -1.21534 
 C                     10.86031  -3.43379  -1.28132 
 C                     11.74661  -3.18831  -2.26923 
 C                     13.12538  -3.74275  -2.33289 
 C                     13.67987  -4.56012  -1.41997 
 C                     15.06644  -5.04349  -1.59522 
 C                     15.63859  -5.85544  -0.69593 
 C                     17.02626  -6.32873  -0.88208 
 C                     17.609   -7.138     0.0124 
 C                     18.99822  -7.60312  -0.18269 
 C                     19.59001  -8.41025   0.70769 
 C                     20.98037  -8.86893   0.50547 
 C                     21.57873  -9.67458   1.39276 
 C                     22.96978  -10.12902   1.1858 
 C                     23.57191  -10.93387   2.07118 
 C                     24.96279  -11.3858   1.86147 
 C                     25.56812  -12.18768   2.74049 
 H                     2.70156  -0.66323  -0.0521 
 H                     3.06258   0.87091  -2.68552 
 H                     5.31886  -0.03591  -2.81184 
 H                     4.70839  -1.47042  -0.16349 
 H                     6.928    -2.37805  -0.25982 
 H                     7.29288  -0.84649  -2.8985 
 H                     9.50575  -1.74649  -3.00011 
 H                     8.90855  -3.18189  -0.34925 
 H                     11.13319  -4.0777   -0.45566 
 H                     11.47938  -2.54583  -3.09685 
 H                     13.71727  -3.44955  -3.19607 
 H                     13.13209  -4.88056  -0.54222 
 H                     15.63    -4.73063  -2.47142 
 H                     15.08016  -6.17086   0.1824 
 H                     17.58093  -6.01059  -1.76201 
 H                     17.05764  -7.45756   0.89373 
 H                     19.54611  -7.28109  -1.06544 
 H                     19.04475  -8.7334    1.59152 
 H                     21.5231  -8.54393  -0.37938 
 H                     21.03777  -10.00033   2.2783 
 H                     23.50941  -9.80222   0.29971 
 H                     23.03391  -11.26153   2.95785 
 H                     25.50983  -11.06448   0.9791 
 H                     25.05545  -12.53051   3.63439 
 H                     26.59049  -12.50792   2.56738 
 H                     1.50397   0.43467  -0.94422 
 

 GradGradGradGradGradGradGradGradGradGradGradGradGradGradGradGradGradGrad
 Berny optimization.
 Initialization pass.
                           ----------------------------
                           !    Initial Parameters    !
                           ! (Angstroms and Degrees)  !
 --------------------------                            --------------------------
 ! Name  Definition              Value          Derivative Info.                !
 --------------------------------------------------------------------------------
 ! R1    R(1,2)                  1.3398         estimate D2E/DX2                !
 ! R2    R(1,25)                 1.082          estimate D2E/DX2                !
 ! R3    R(1,50)                 1.0853         estimate D2E/DX2                !
 ! R4    R(2,3)                  1.4873         estimate D2E/DX2                !
 ! R5    R(2,26)                 1.086          estimate D2E/DX2                !
 ! R6    R(3,4)                  1.3499         estimate D2E/DX2                !
 ! R7    R(3,27)                 1.0814         estimate D2E/DX2                !
 ! R8    R(4,5)                  1.4892         estimate D2E/DX2                !
 ! R9    R(4,28)                 1.0822         estimate D2E/DX2                !
 ! R10   R(5,6)                  1.3499         estimate D2E/DX2                !
 ! R11   R(5,29)                 1.0816         estimate D2E/DX2                !
 ! R12   R(6,7)                  1.4888         estimate D2E/DX2                !
 ! R13   R(6,30)                 1.0815         estimate D2E/DX2                !
 ! R14   R(7,8)                  1.3504         estimate D2E/DX2                !
 ! R15   R(7,31)                 1.0813         estimate D2E/DX2                !
 ! R16   R(8,9)                  1.4896         estimate D2E/DX2                !
 ! R17   R(8,32)                 1.0816         estimate D2E/DX2                !
 ! R18   R(9,10)                 1.3497         estimate D2E/DX2                !
 ! R19   R(9,33)                 1.082          estimate D2E/DX2                !
 ! R20   R(10,11)                1.4874         estimate D2E/DX2                !
 ! R21   R(10,34)                1.0813         estimate D2E/DX2                !
 ! R22   R(11,12)                1.345          estimate D2E/DX2                !
 ! R23   R(11,35)                1.0869         estimate D2E/DX2                !
 ! R24   R(12,13)                1.4788         estimate D2E/DX2                !
 ! R25   R(12,36)                1.0831         estimate D2E/DX2                !
 ! R26   R(13,14)                1.3399         estimate D2E/DX2                !
 ! R27   R(13,37)                1.0878         estimate D2E/DX2                !
 ! R28   R(14,15)                1.4779         estimate D2E/DX2                !
 ! R29   R(14,38)                1.0876         estimate D2E/DX2                !
 ! R30   R(15,16)                1.3396         estimate D2E/DX2                !
 ! R31   R(15,39)                1.0877         estimate D2E/DX2                !
 ! R32   R(16,17)                1.4779         estimate D2E/DX2                !
 ! R33   R(16,40)                1.0876         estimate D2E/DX2                !
 ! R34   R(17,18)                1.3396         estimate D2E/DX2                !
 ! R35   R(17,41)                1.0877         estimate D2E/DX2                !
 ! R36   R(18,19)                1.478          estimate D2E/DX2                !
 ! R37   R(18,42)                1.0876         estimate D2E/DX2                !
 ! R38   R(19,20)                1.3395         estimate D2E/DX2                !
 ! R39   R(19,43)                1.0877         estimate D2E/DX2                !
 ! R40   R(20,21)                1.478          estimate D2E/DX2                !
 ! R41   R(20,44)                1.0876         estimate D2E/DX2                !
 ! R42   R(21,22)                1.3395         estimate D2E/DX2                !
 ! R43   R(21,45)                1.0877         estimate D2E/DX2                !
 ! R44   R(22,23)                1.4774         estimate D2E/DX2                !
 ! R45   R(22,46)                1.0877         estimate D2E/DX2                !
 ! R46   R(23,24)                1.335          estimate D2E/DX2                !
 ! R47   R(23,47)                1.0868         estimate D2E/DX2                !
 ! R48   R(24,48)                1.086          estimate D2E/DX2                !
 ! R49   R(24,49)                1.0852         estimate D2E/DX2                !
 ! A1    A(2,1,25)             123.0459         estimate D2E/DX2                !
 ! A2    A(2,1,50)             119.3908         estimate D2E/DX2                !
 ! A3    A(25,1,50)            117.5633         estimate D2E/DX2                !
 ! A4    A(1,2,3)              125.3262         estimate D2E/DX2                !
 ! A5    A(1,2,26)             117.704          estimate D2E/DX2                !
 ! A6    A(3,2,26)             116.9698         estimate D2E/DX2                !
 ! A7    A(2,3,4)              124.6206         estimate D2E/DX2                !
 ! A8    A(2,3,27)             114.8914         estimate D2E/DX2                !
 ! A9    A(4,3,27)             120.488          estimate D2E/DX2                !
 ! A10   A(3,4,5)              125.0532         estimate D2E/DX2                !
 ! A11   A(3,4,28)             119.9814         estimate D2E/DX2                !
 ! A12   A(5,4,28)             114.9654         estimate D2E/DX2                !
 ! A13   A(4,5,6)              124.943          estimate D2E/DX2                !
 ! A14   A(4,5,29)             114.8176         estimate D2E/DX2                !
 ! A15   A(6,5,29)             120.2394         estimate D2E/DX2                !
 ! A16   A(5,6,7)              125.0893         estimate D2E/DX2                !
 ! A17   A(5,6,30)             120.2219         estimate D2E/DX2                !
 ! A18   A(7,6,30)             114.6888         estimate D2E/DX2                !
 ! A19   A(6,7,8)              125.1231         estimate D2E/DX2                !
 ! A20   A(6,7,31)             114.6201         estimate D2E/DX2                !
 ! A21   A(8,7,31)             120.2568         estimate D2E/DX2                !
 ! A22   A(7,8,9)              124.9414         estimate D2E/DX2                !
 ! A23   A(7,8,32)             120.2347         estimate D2E/DX2                !
 ! A24   A(9,8,32)             114.8239         estimate D2E/DX2                !
 ! A25   A(8,9,10)             124.9474         estimate D2E/DX2                !
 ! A26   A(8,9,33)             114.9768         estimate D2E/DX2                !
 ! A27   A(10,9,33)            120.0758         estimate D2E/DX2                !
 ! A28   A(9,10,11)            124.9043         estimate D2E/DX2                !
 ! A29   A(9,10,34)            120.3985         estimate D2E/DX2                !
 ! A30   A(11,10,34)           114.6971         estimate D2E/DX2                !
 ! A31   A(10,11,12)           125.4242         estimate D2E/DX2                !
 ! A32   A(10,11,35)           115.9899         estimate D2E/DX2                !
 ! A33   A(12,11,35)           118.5858         estimate D2E/DX2                !
 ! A34   A(11,12,13)           120.3144         estimate D2E/DX2                !
 ! A35   A(11,12,36)           121.4223         estimate D2E/DX2                !
 ! A36   A(13,12,36)           118.2632         estimate D2E/DX2                !
 ! A37   A(12,13,14)           121.2585         estimate D2E/DX2                !
 ! A38   A(12,13,37)           119.1579         estimate D2E/DX2                !
 ! A39   A(14,13,37)           119.5835         estimate D2E/DX2                !
 ! A40   A(13,14,15)           120.6939         estimate D2E/DX2                !
 ! A41   A(13,14,38)           119.9028         estimate D2E/DX2                !
 ! A42   A(15,14,38)           119.4033         estimate D2E/DX2                !
 ! A43   A(14,15,16)           121.1843         estimate D2E/DX2                !
 ! A44   A(14,15,39)           119.1448         estimate D2E/DX2                !
 ! A45   A(16,15,39)           119.6709         estimate D2E/DX2                !
 ! A46   A(15,16,17)           120.7214         estimate D2E/DX2                !
 ! A47   A(15,16,40)           119.8709         estimate D2E/DX2                !
 ! A48   A(17,16,40)           119.4076         estimate D2E/DX2                !
 ! A49   A(16,17,18)           121.1402         estimate D2E/DX2                !
 ! A50   A(16,17,41)           119.1711         estimate D2E/DX2                !
 ! A51   A(18,17,41)           119.6886         estimate D2E/DX2                !
 ! A52   A(17,18,19)           120.7729         estimate D2E/DX2                !
 ! A53   A(17,18,42)           119.8468         estimate D2E/DX2                !
 ! A54   A(19,18,42)           119.3803         estimate D2E/DX2                !
 ! A55   A(18,19,20)           121.0797         estimate D2E/DX2                !
 ! A56   A(18,19,43)           119.2067         estimate D2E/DX2                !
 ! A57   A(20,19,43)           119.7136         estimate D2E/DX2                !
 ! A58   A(19,20,21)           120.8367         estimate D2E/DX2                !
 ! A59   A(19,20,44)           119.8197         estimate D2E/DX2                !
 ! A60   A(21,20,44)           119.3435         estimate D2E/DX2                !
 ! A61   A(20,21,22)           121.0166         estimate D2E/DX2                !
 ! A62   A(20,21,45)           119.2503         estimate D2E/DX2                !
 ! A63   A(22,21,45)           119.7331         estimate D2E/DX2                !
 ! A64   A(21,22,23)           120.8756         estimate D2E/DX2                !
 ! A65   A(21,22,46)           119.8347         estimate D2E/DX2                !
 ! A66   A(23,22,46)           119.2897         estimate D2E/DX2                !
 ! A67   A(22,23,24)           121.1427         estimate D2E/DX2                !
 ! A68   A(22,23,47)           119.9125         estimate D2E/DX2                !
 ! A69   A(24,23,47)           118.9447         estimate D2E/DX2                !
 ! A70   A(23,24,48)           121.1674         estimate D2E/DX2                !
 ! A71   A(23,24,49)           119.9598         estimate D2E/DX2                !
 ! A72   A(48,24,49)           118.8729         estimate D2E/DX2                !
 ! D1    D(25,1,2,3)            -0.0041         estimate D2E/DX2                !
 ! D2    D(25,1,2,26)         -179.9958         estimate D2E/DX2                !
 ! D3    D(50,1,2,3)           179.9935         estimate D2E/DX2                !
 ! D4    D(50,1,2,26)            0.0018         estimate D2E/DX2                !
 ! D5    D(1,2,3,4)             -0.0023         estimate D2E/DX2                !
 ! D6    D(1,2,3,27)          -179.9845         estimate D2E/DX2                !
 ! D7    D(26,2,3,4)           179.9894         estimate D2E/DX2                !
 ! D8    D(26,2,3,27)            0.0072         estimate D2E/DX2                !
 ! D9    D(2,3,4,5)           -179.9669         estimate D2E/DX2                !
 ! D10   D(2,3,4,28)             0.0027         estimate D2E/DX2                !
 ! D11   D(27,3,4,5)             0.0143         estimate D2E/DX2                !
 ! D12   D(27,3,4,28)          179.984          estimate D2E/DX2                !
 ! D13   D(3,4,5,6)             -0.0588         estimate D2E/DX2                !
 ! D14   D(3,4,5,29)           179.9196         estimate D2E/DX2                !
 ! D15   D(28,4,5,6)           179.9702         estimate D2E/DX2                !
 ! D16   D(28,4,5,29)           -0.0514         estimate D2E/DX2                !
 ! D17   D(4,5,6,7)            179.9354         estimate D2E/DX2                !
 ! D18   D(4,5,6,30)            -0.029          estimate D2E/DX2                !
 ! D19   D(29,5,6,7)            -0.0419         estimate D2E/DX2                !
 ! D20   D(29,5,6,30)          179.9937         estimate D2E/DX2                !
 ! D21   D(5,6,7,8)             -0.0433         estimate D2E/DX2                !
 ! D22   D(5,6,7,31)          -179.9838         estimate D2E/DX2                !
 ! D23   D(30,6,7,8)           179.9228         estimate D2E/DX2                !
 ! D24   D(30,6,7,31)           -0.0176         estimate D2E/DX2                !
 ! D25   D(6,7,8,9)           -179.8999         estimate D2E/DX2                !
 ! D26   D(6,7,8,32)             0.0272         estimate D2E/DX2                !
 ! D27   D(31,7,8,9)             0.0375         estimate D2E/DX2                !
 ! D28   D(31,7,8,32)          179.9646         estimate D2E/DX2                !
 ! D29   D(7,8,9,10)            -0.0924         estimate D2E/DX2                !
 ! D30   D(7,8,9,33)           179.8601         estimate D2E/DX2                !
 ! D31   D(32,8,9,10)          179.977          estimate D2E/DX2                !
 ! D32   D(32,8,9,33)           -0.0706         estimate D2E/DX2                !
 ! D33   D(8,9,10,11)          179.8825         estimate D2E/DX2                !
 ! D34   D(8,9,10,34)           -0.0613         estimate D2E/DX2                !
 ! D35   D(33,9,10,11)          -0.0677         estimate D2E/DX2                !
 ! D36   D(33,9,10,34)         179.9885         estimate D2E/DX2                !
 ! D37   D(9,10,11,12)          -0.0878         estimate D2E/DX2                !
 ! D38   D(9,10,11,35)         179.9984         estimate D2E/DX2                !
 ! D39   D(34,10,11,12)        179.8588         estimate D2E/DX2                !
 ! D40   D(34,10,11,35)         -0.055          estimate D2E/DX2                !
 ! D41   D(10,11,12,13)       -179.8662         estimate D2E/DX2                !
 ! D42   D(10,11,12,36)          0.0413         estimate D2E/DX2                !
 ! D43   D(35,11,12,13)          0.0455         estimate D2E/DX2                !
 ! D44   D(35,11,12,36)        179.9531         estimate D2E/DX2                !
 ! D45   D(11,12,13,14)        179.8273         estimate D2E/DX2                !
 ! D46   D(11,12,13,37)         -0.0818         estimate D2E/DX2                !
 ! D47   D(36,12,13,14)         -0.0831         estimate D2E/DX2                !
 ! D48   D(36,12,13,37)       -179.9923         estimate D2E/DX2                !
 ! D49   D(12,13,14,15)       -179.8678         estimate D2E/DX2                !
 ! D50   D(12,13,14,38)          0.0443         estimate D2E/DX2                !
 ! D51   D(37,13,14,15)          0.041          estimate D2E/DX2                !
 ! D52   D(37,13,14,38)        179.9531         estimate D2E/DX2                !
 ! D53   D(13,14,15,16)        179.8354         estimate D2E/DX2                !
 ! D54   D(13,14,15,39)         -0.0823         estimate D2E/DX2                !
 ! D55   D(38,14,15,16)         -0.0772         estimate D2E/DX2                !
 ! D56   D(38,14,15,39)       -179.9948         estimate D2E/DX2                !
 ! D57   D(14,15,16,17)       -179.8842         estimate D2E/DX2                !
 ! D58   D(14,15,16,40)          0.0411         estimate D2E/DX2                !
 ! D59   D(39,15,16,17)          0.0331         estimate D2E/DX2                !
 ! D60   D(39,15,16,40)        179.9583         estimate D2E/DX2                !
 ! D61   D(15,16,17,18)        179.8652         estimate D2E/DX2                !
 ! D62   D(15,16,17,41)         -0.0693         estimate D2E/DX2                !
 ! D63   D(40,16,17,18)         -0.0604         estimate D2E/DX2                !
 ! D64   D(40,16,17,41)       -179.9949         estimate D2E/DX2                !
 ! D65   D(16,17,18,19)       -179.9113         estimate D2E/DX2                !
 ! D66   D(16,17,18,42)          0.0339         estimate D2E/DX2                !
 ! D67   D(41,17,18,19)          0.0229         estimate D2E/DX2                !
 ! D68   D(41,17,18,42)        179.9682         estimate D2E/DX2                !
 ! D69   D(17,18,19,20)        179.908          estimate D2E/DX2                !
 ! D70   D(17,18,19,43)         -0.0481         estimate D2E/DX2                !
 ! D71   D(42,18,19,20)         -0.0375         estimate D2E/DX2                !
 ! D72   D(42,18,19,43)       -179.9936         estimate D2E/DX2                !
 ! D73   D(18,19,20,21)       -179.9435         estimate D2E/DX2                !
 ! D74   D(18,19,20,44)          0.0241         estimate D2E/DX2                !
 ! D75   D(43,19,20,21)          0.0124         estimate D2E/DX2                !
 ! D76   D(43,19,20,44)        179.9799         estimate D2E/DX2                !
 ! D77   D(19,20,21,22)        179.9524         estimate D2E/DX2                !
 ! D78   D(19,20,21,45)         -0.0249         estimate D2E/DX2                !
 ! D79   D(44,20,21,22)         -0.0153         estimate D2E/DX2                !
 ! D80   D(44,20,21,45)       -179.9926         estimate D2E/DX2                !
 ! D81   D(20,21,22,23)       -179.9736         estimate D2E/DX2                !
 ! D82   D(20,21,22,46)          0.0133         estimate D2E/DX2                !
 ! D83   D(45,21,22,23)          0.0035         estimate D2E/DX2                !
 ! D84   D(45,21,22,46)        179.9905         estimate D2E/DX2                !
 ! D85   D(21,22,23,24)        179.9863         estimate D2E/DX2                !
 ! D86   D(21,22,23,47)         -0.0065         estimate D2E/DX2                !
 ! D87   D(46,22,23,24)         -0.0008         estimate D2E/DX2                !
 ! D88   D(46,22,23,47)       -179.9936         estimate D2E/DX2                !
 ! D89   D(22,23,24,48)          0.0035         estimate D2E/DX2                !
 ! D90   D(22,23,24,49)       -179.9943         estimate D2E/DX2                !
 ! D91   D(47,23,24,48)        179.9963         estimate D2E/DX2                !
 ! D92   D(47,23,24,49)         -0.0015         estimate D2E/DX2                !
 --------------------------------------------------------------------------------
 Trust Radius=3.00D-01 FncErr=1.00D-07 GrdErr=1.00D-06 EigMax=2.50D+02 EigMin=1.00D-04
 Number of steps in this run=    223 maximum allowed number of steps=    300.
 GradGradGradGradGradGradGradGradGradGradGradGradGradGradGradGradGradGrad

                          Input orientation:                          
 ---------------------------------------------------------------------
 Center     Atomic      Atomic             Coordinates (Angstroms)
 Number     Number       Type             X           Y           Z
 ---------------------------------------------------------------------
      1          6           0        2.486171   -0.024839   -0.898745
      2          6           0        3.370505    0.215753   -1.875993
      3          6           0        4.747396   -0.342065   -1.946329
      4          6           0        5.287565   -1.169468   -1.026658
      5          6           0        6.664764   -1.732916   -1.087052
      6          6           0        7.556434   -1.491534   -2.071412
      7          6           0        8.934345   -2.051910   -2.134369
      8          6           0        9.480206   -2.877086   -1.215337
      9          6           0       10.860313   -3.433790   -1.281318
     10          6           0       11.746612   -3.188306   -2.269231
     11          6           0       13.125380   -3.742750   -2.332889
     12          6           0       13.679871   -4.560119   -1.419965
     13          6           0       15.066441   -5.043495   -1.595222
     14          6           0       15.638594   -5.855438   -0.695927
     15          6           0       17.026261   -6.328729   -0.882079
     16          6           0       17.609003   -7.137998    0.012400
     17          6           0       18.998222   -7.603115   -0.182690
     18          6           0       19.590012   -8.410251    0.707692
     19          6           0       20.980372   -8.868927    0.505471
     20          6           0       21.578726   -9.674581    1.392760
     21          6           0       22.969776  -10.129023    1.185801
     22          6           0       23.571911  -10.933873    2.071175
     23          6           0       24.962788  -11.385802    1.861475
     24          6           0       25.568125  -12.187685    2.740492
     25          1           0        2.701561   -0.663229   -0.052096
     26          1           0        3.062575    0.870913   -2.685520
     27          1           0        5.318858   -0.035906   -2.811838
     28          1           0        4.708388   -1.470416   -0.163488
     29          1           0        6.927999   -2.378046   -0.259818
     30          1           0        7.292884   -0.846488   -2.898502
     31          1           0        9.505748   -1.746490   -3.000108
     32          1           0        8.908554   -3.181889   -0.349252
     33          1           0       11.133191   -4.077697   -0.455663
     34          1           0       11.479376   -2.545826   -3.096850
     35          1           0       13.717274   -3.449547   -3.196074
     36          1           0       13.132090   -4.880558   -0.542224
     37          1           0       15.629997   -4.730631   -2.471420
     38          1           0       15.080161   -6.170864    0.182404
     39          1           0       17.580931   -6.010586   -1.762010
     40          1           0       17.057642   -7.457559    0.893727
     41          1           0       19.546112   -7.281085   -1.065445
     42          1           0       19.044750   -8.733402    1.591517
     43          1           0       21.523096   -8.543934   -0.379378
     44          1           0       21.037772  -10.000333    2.278296
     45          1           0       23.509408   -9.802218    0.299714
     46          1           0       23.033914  -11.261533    2.957849
     47          1           0       25.509829  -11.064481    0.979100
     48          1           0       25.055450  -12.530515    3.634393
     49          1           0       26.590491  -12.507923    2.567375
     50          1           0        1.503967    0.434668   -0.944215
 ---------------------------------------------------------------------
                    Distance matrix (angstroms):
                    1          2          3          4          5
     1  C    0.000000
     2  C    1.339756   0.000000
     3  C    2.512211   1.487258   0.000000
     4  C    3.028918   2.513031   1.349879   0.000000
     5  C    4.518145   3.907925   2.519747   1.489228   0.000000
     6  C    5.406839   4.524933   3.037700   2.518532   1.349928
     7  C    6.871298   6.013765   4.526530   3.912127   2.519847
     8  C    7.559899   6.879721   5.418503   4.530982   3.041758
     9  C    9.049507   8.352845   6.882497   6.020592   4.531373
    10  C    9.881373   9.049940   7.562697   6.880333   5.416723
    11  C   11.361004  10.537366   9.050123   8.352208   6.879761
    12  C   12.088812  11.371013   9.892328   9.059913   7.570709
    13  C   13.562270  12.827058  11.345017  10.533649   9.044686
    14  C   14.388303  13.738920  12.271063  11.367124   9.883208
    15  C   15.847824  15.175565  13.701946  12.823255  11.336848
    16  C   16.737003  16.136248  14.677952  13.730289  12.255614
    17  C   18.182158  17.556409  16.090971  15.168593  13.689094
    18  C   19.116411  18.551436  17.100956  16.124419  14.658442
    19  C   20.548119  19.957710  18.499411  17.546888  16.074682
    20  C   21.514976  20.977196  19.533025  18.536247  17.077640
    21  C   22.935081  22.372313  20.920084  19.945656  18.480094
    22  C   23.925633  23.409209  21.970187  20.958471  19.505989
    23  C   25.335521  24.794987  23.347924  22.356860  20.897121
    24  C   26.343034  25.843597  24.408764  23.385757  21.938307
    25  H    1.082012   2.132298   2.806547   2.809531   4.233479
    26  H    2.080187   1.085997   2.203710   3.444642   4.723430
    27  H    3.418210   2.176055   1.081391   2.114902   2.768789
    28  H    2.751099   2.750594   2.110265   1.082164   2.179286
    29  H    5.067115   4.689944   3.427035   2.177092   1.081573
    30  H    5.270543   4.190338   2.764161   2.762141   2.112259
    31  H    7.526904   6.538749   5.071960   4.692604   3.425078
    32  H    7.177459   6.674196   5.284931   4.197652   2.771004
    33  H    9.559966   8.983893   7.546881   6.554020   5.085616
    34  H    9.595039   8.652779   7.176337   6.672224   5.280208
    35  H   11.964282  11.055889   9.574812   8.998063   7.558617
    36  H   11.706439  11.092334   9.637040   8.691573   7.213237
    37  H   14.049127  13.233155  11.745904  11.033365   9.553961
    38  H   14.055287  13.495995  12.052901  11.062130   9.598218
    39  H   16.261187  15.515041  14.030885  13.232688  11.743796
    40  H   16.455579  15.933888  14.499598  13.481939  12.029420
    41  H   18.539755  17.846844  16.368505  15.513205  14.025397
    42  H   18.873977  18.379144  16.951261  15.916284  14.472235
    43  H   20.862628  20.211099  18.739000  17.843604  16.360342
    44  H   21.301783  20.826878  19.403761  18.356904  16.919193
    45  H   23.216588  22.597983  21.131784  20.206909  18.729089
    46  H   23.734918  23.275389  21.855948  20.800456  19.367623
    47  H   25.602516  25.010895  23.550095  22.602529  21.130157
    48  H   26.197588  25.750117  24.333512  23.271615  21.842561
    49  H   27.365300  26.847778  25.406740  24.398613  22.945374
    50  H    1.085328   2.097641   3.482438   4.110433   5.599344
                    6          7          8          9         10
     6  C    0.000000
     7  C    1.488833   0.000000
     8  C    2.520618   1.350369   0.000000
     9  C    3.913084   2.519254   1.489621   0.000000
    10  C    4.525015   3.036186   2.518759   1.349726   0.000000
    11  C    6.012446   4.523619   3.909680   2.516304   1.487435
    12  C    6.880195   5.414933   4.528981   3.039366   2.518058
    13  C    8.321261   6.844184   6.003637   4.514554   3.862289
    14  C    9.287461   7.841103   6.860475   5.388788   4.973571
    15  C   10.700028   9.237885   8.304689   6.823414   6.297709
    16  C   11.716611  10.282344   9.259593   7.806387   7.427889
    17  C   13.108517  11.657897  10.676814   9.209551   8.742428
    18  C   14.156238  12.729848  11.684269  10.243484   9.881786
    19  C   15.532816  14.090679  13.081176  11.625357  11.190655
    20  C   16.600826  15.179793  14.120280  12.687890  12.335008
    21  C   17.966267  16.530475  15.502405  14.055316  13.640755
    22  C   19.047685  17.630491  16.561677  15.135230  14.787516
    23  C   20.404541  18.973647  17.932523  16.492163  16.091270
    24  C   21.493791  20.079363  19.004131  17.581961  17.237179
    25  H    5.322924   6.716539   7.225255   8.703576   9.649075
    26  H    5.114005   6.582123   7.575943   9.017038   9.594949
    27  H    2.770168   4.194638   5.285635   6.678011   7.179699
    28  H    3.428117   4.699066   5.084816   6.553669   7.544660
    29  H    2.112512   2.765091   2.770526   4.197755   5.283303
    30  H    1.081490   2.175163   3.426477   4.694248   5.071073
    31  H    2.174237   1.081336   2.112891   2.763344   2.763058
    32  H    2.766110   2.112856   1.081570   2.177513   3.426504
    33  H    4.700221   3.428817   2.179663   1.082028   2.111002
    34  H    4.189574   2.765412   2.765231   2.113735   1.081272
    35  H    6.561603   5.094803   4.712089   3.439297   2.193353
    36  H    6.701630   5.306339   4.219389   2.792914   2.786722
    37  H    8.708283   7.219481   6.544716   5.084095   4.183340
    38  H    9.142334   7.752694   6.645461   5.238432   5.100854
    39  H   11.000369   9.516996   8.702841   7.213713   6.500909
    40  H   11.604243  10.216573   9.102002   7.702495   7.512514
    41  H   13.352276  11.878404  10.988182   9.502178   8.890003
    42  H   14.065671  12.678519  11.560942  10.164845   9.945667
    43  H   15.737439  14.272456  13.335787  11.858415  11.306367
    44  H   16.524712  15.137436  14.018683  12.624223  12.385853
    45  H   18.143514  16.686056  15.718503  14.249776  13.737055
    46  H   18.981537  17.593910  16.474752  15.081135  14.829111
    47  H   20.573559  19.122415  18.132783  16.671690  16.186782
    48  H   21.462313  20.074107  18.955126  17.561791  17.298983
    49  H   22.476087  21.051700  19.995595  18.563158  18.182100
    50  H    6.450828   7.925279   8.640694  10.130144  10.945016
                   11         12         13         14         15
    11  C    0.000000
    12  C    1.344984   0.000000
    13  C    2.450266   1.478831   0.000000
    14  C    3.668697   2.457372   1.339904   0.000000
    15  C    4.899899   3.823039   2.449754   1.477930   0.000000
    16  C    6.093518   4.912759   3.665517   2.455443   1.339625
    17  C    7.349561   6.251042   4.899572   3.821634   2.449864
    18  C    8.533590   7.367510   6.091072   4.910287   3.665095
    19  C    9.799738   8.693126   7.349927   6.249725   4.900295
    20  C   10.978439   9.821459   8.531404   7.364349   6.090530
    21  C   12.250624  11.140244   9.800989   8.691988   7.351444
    22  C   13.425276  12.274577  10.976432   9.817580   8.530803
    23  C   14.701467  13.589040  12.251992  11.138484   9.802527
    24  C   15.870665  14.724800  13.421000  12.267922  10.973323
    25  H   11.105921  11.729455  13.208263  13.954941  15.426724
    26  H   11.075662  11.992694  13.426159  14.399949  15.813658
    27  H    8.655165   9.607932  11.025946  12.034990  13.430819
    28  H    8.984185   9.571443  11.050159  11.789034  13.260829
    29  H    6.675895   7.189934   8.667303   9.389191  10.861399
    30  H    6.536533   7.534636   8.929814   9.979569  11.351632
    31  H    4.187120   5.276047   6.615531   7.733338   9.057653
    32  H    4.693719   5.080493   6.552677   7.249930   8.722595
    33  H    2.757713   2.765536   4.207352   4.849407   6.322756
    34  H    2.173844   3.422207   4.621718   5.832415   7.069902
    35  H    1.086920   2.095074   2.631282   3.966171   4.959199
    36  H    2.121587   1.083132   2.208408   2.693804   4.168605
    37  H    2.695961   2.222076   1.087751   2.101818   2.651316
    38  H    4.005446   2.668875   2.105018   1.087569   2.223815
    39  H    5.031989   4.176017   2.699212   2.221098   1.087729
    40  H    6.298693   5.015742   3.998432   2.665988   2.104454
    41  H    7.439894   6.476274   5.035368   4.175848   2.700047
    42  H    8.680236   7.434194   6.292668   5.011684   3.996927
    43  H    9.868596   8.858317   7.444444   6.477312   5.037992
    44  H   11.091722   9.869740   8.673591   7.428141   6.289742
    45  H   12.307549  11.271942   9.875217   8.861043   7.449359
    46  H   13.516768  12.311471  11.084903   9.862388   8.670034
    47  H   14.763183  13.711678  12.326547  11.286324   9.892535
    48  H   15.973722  14.780985  13.534572  12.328239  11.105338
    49  H   16.797322  15.676433  14.347426  13.223038  11.897717
    50  H   12.427248  13.169164  14.641542  15.473033  16.931893
                   16         17         18         19         20
    16  C    0.000000
    17  C    1.477946   0.000000
    18  C    2.454884   1.339576   0.000000
    19  C    3.821696   2.450462   1.477964   0.000000
    20  C    4.909007   3.664971   2.454146   1.339548   0.000000
    21  C    6.249879   4.901654   3.821723   2.451208   1.477961
    22  C    7.362302   6.090360   4.907471   3.664902   2.453334
    23  C    8.691436   7.352780   6.249147   4.902351   3.820974
    24  C    9.812718   8.528006   7.357929   6.087442   4.903812
    25  H   16.252958  17.713279  18.596059  20.043934  20.967581
    26  H   16.823198  18.221365  19.256429  20.642053  21.695337
    27  H   14.472861  15.852447  16.916932  18.284141  19.364039
    28  H   14.091781  15.550233  16.443327  17.887508  18.823883
    29  H   11.696798  13.152854  14.058810  15.497947  16.450357
    30  H   12.428948  13.785594  14.880675  16.226333  17.333074
    31  H   10.188538  11.504129  12.643017  13.952964  15.096646
    32  H    9.564486  11.017095  11.939281  13.371676  14.343044
    33  H    7.177790   8.623329   9.572995  10.993027  11.993789
    34  H    8.266064   9.518485  10.707401  11.967759  13.151906
    35  H    6.248562   7.363493   8.621892   9.788958  11.027732
    36  H    5.044442   6.477120   7.464970   8.865680   9.903155
    37  H    3.985127   4.983411   6.271209   7.390120   8.646496
    38  H    2.712802   4.187582   5.062563   6.495877   7.481467
    39  H    2.102469   2.653133   3.986756   4.986761   6.273739
    40  H    1.087591   2.223895   2.712034   4.186945   5.060081
    41  H    2.221399   1.087724   2.102607   2.654453   3.987871
    42  H    2.664638   2.104168   1.087604   2.223622   2.710416
    43  H    4.177352   2.701632   2.221803   1.087717   2.102839
    44  H    5.008363   3.995355   2.662924   2.103873   1.087621
    45  H    6.480385   5.041781   4.179196   2.703588   2.222290
    46  H    7.423535   6.287592   5.005345   3.994466   2.661858
    47  H    8.875518   7.465375   6.493291   5.055765   4.190048
    48  H    9.881682   8.691340   7.444002   6.309012   5.026816
    49  H   10.771774   9.447885   8.322022   6.997655   5.875826
    50  H   17.822249  19.267455  20.200653  21.633049  22.597662
                   21         22         23         24         25
    21  C    0.000000
    22  C    1.339492   0.000000
    23  C    2.451148   1.477414   0.000000
    24  C    3.661498   2.450489   1.334961   0.000000
    25  H   22.403888  23.357353  24.783009  25.758326   0.000000
    26  H   23.071245  24.137356  25.505324  26.579472   3.069013
    27  H   20.722139  21.812461  23.163419  24.259574   3.854861
    28  H   20.255132  21.222235  22.641910  23.630945   2.165944
    29  H   17.874732  18.858831  20.270499  21.276399   4.565800
    30  H   18.671152  19.785342  21.117765  22.235229   5.405170
    31  H   16.403315  17.549441  18.853949  19.999325   7.494077
    32  H   15.758712  16.762033  18.163973  19.188334   6.705126
    33  H   13.394689  14.426150  15.812504  16.862818   9.105704
    34  H   14.417881  15.597988  16.868093  18.042529   9.479701
    35  H   12.223953  13.448900  14.663714  15.875784  11.789576
    36  H   11.283285  12.347564  13.713547  14.792744  11.261529
    37  H    9.817853  11.053930  12.254234  13.473605  13.767402
    38  H    8.883685   9.917840  11.299610  12.358938  13.550600
    39  H    7.395320   8.650081   9.824174  11.055511  15.903261
    40  H    6.494255   7.477088   8.880256   9.910244  15.910832
    41  H    4.990023   6.276010   7.399725   8.650116  18.126274
    42  H    4.185474   5.056415   6.490861   7.470384  18.301065
    43  H    2.656158   3.989319   4.992907   6.274772  20.407420
    44  H    2.223228   2.708552   4.183182   5.051953  20.708184
    45  H    1.087729   2.103004   2.656906   3.985745  22.729087
    46  H    2.104007   1.087654   2.222169   2.706885  23.125492
    47  H    2.714715   2.228276   1.086778   2.089853  25.089171
    48  H    4.014075   2.682126   2.112390   1.086014  25.575751
    49  H    4.547251   3.440301   2.099254   1.085244  26.792525
    50  H   24.018940  25.006608  26.418018  27.422336   1.853506
                   26         27         28         29         30
    26  H    0.000000
    27  H    2.434972   0.000000
    28  H    3.814599   3.073150   0.000000
    29  H    5.601898   3.819393   2.399948   0.000000
    30  H    4.570595   2.135728   3.814342   3.072696   0.000000
    31  H    6.961626   4.526764   5.580081   3.814819   2.391045
    32  H    7.487244   5.370983   4.539279   2.139336   3.816171
    33  H    9.726039   7.462848   6.939840   4.539913   5.581767
    34  H    9.093175   6.658296   7.457037   5.365811   4.522588
    35  H   11.508677   9.073808   9.709458   7.474220   6.938102
    36  H   11.792721   9.469340   9.095674   6.695750   7.478108
    37  H   13.760932  11.334722  11.629149   9.281735   9.207412
    38  H   14.220899  11.911600  11.392433   9.002153   9.923841
    39  H   16.093184  13.680548  13.743027  11.355038  11.567344
    40  H   16.674422  14.373977  13.764726  11.390425  12.387000
    41  H   18.460409  16.061049  15.960435  13.561180  13.960865
    42  H   19.130233  16.835560  16.166703  13.807014  14.848233
    43  H   20.850623  18.462956  18.243237  15.844536  16.373625
    44  H   21.585438  19.294650  18.584149  16.236593  17.306474
    45  H   23.257263  20.879624  20.569682  18.176207  18.799184
    46  H   24.039514  21.751487  21.010322  18.672713  19.762338
    47  H   25.685838  23.316860  22.935813  20.549293  21.243828
    48  H   26.518410  24.232255  23.468119  21.138637  22.241941
    49  H   27.570799  25.238255  24.659899  22.298453  23.200485
    50  H    2.377332   4.273505   3.808830   6.148161   6.242768
                   31         32         33         34         35
    31  H    0.000000
    32  H    3.073118   0.000000
    33  H    3.815403   2.400584   0.000000
    34  H    2.131549   3.816149   3.072839   0.000000
    35  H    4.547061   5.594625   3.818627   2.415522   0.000000
    36  H    5.386459   4.556421   2.155847   3.835173   3.071344
    37  H    6.833084   7.216647   4.971002   4.732040   2.413464
    38  H    7.795995   6.877888   4.512986   6.071248   4.547212
    39  H    9.215421   9.230793   6.856818   7.142503   4.852144
    40  H   10.237645   9.286225   6.952945   8.436047   6.629381
    41  H   11.626848  11.422521   9.022792   9.571914   7.293533
    42  H   12.684342  11.718718   9.405280  10.839824   8.900682
    43  H   14.053118  13.706900  11.309430  12.009924   9.737423
    44  H   15.131922  14.160265  11.859716  13.259895  11.245942
    45  H   16.488968  16.044776  13.656920  14.453842  12.184533
    46  H   17.579664  16.605521  14.313866  15.688540  13.627093
    47  H   18.941744  18.425582  16.048719  16.912553  14.645260
    48  H   20.052557  19.078482  16.793093  18.146995  16.052211
    49  H   20.945018  20.202290  17.864366  18.965037  16.762793
    50  H    8.544743   8.262044  10.645284  10.631366  13.012412
                   36         37         38         39         40
    36  H    0.000000
    37  H    3.159717   0.000000
    38  H    2.446416   3.069099   0.000000
    39  H    4.749424   2.438788   3.171796   0.000000
    40  H    4.910483   4.560539   2.464143   3.069284   0.000000
    41  H    6.868476   4.880321   4.768065   2.441579   3.172062
    42  H    7.372707   6.647568   4.926477   4.560991   2.462374
    43  H    9.157282   7.324379   6.889012   4.885712   4.768782
    44  H    9.831949   8.920402   7.385847   6.647699   4.921805
    45  H   11.516089   9.771657   9.178927   7.333076   6.890251
    46  H   12.288753  11.267103   9.842774   8.921016   7.378797
    47  H   13.919904  12.232530  11.548168   9.794026   9.190029
    48  H   14.769308  13.673269  12.323465  11.291548   9.859567
    49  H   15.778937  14.352984  13.354180  11.921876  10.917073
    50  H   12.791656  15.118115  15.139859  17.340094  17.538018
                   41         42         43         44         45
    41  H    0.000000
    42  H    3.069207   0.000000
    43  H    2.444164   3.172148   0.000000
    44  H    4.560697   2.459454   3.069180   0.000000
    45  H    4.891572   4.769097   2.447423   3.172226   0.000000
    46  H    6.647978   4.916476   4.561250   2.457031   3.069426
    47  H    7.352561   6.899726   4.908427   4.776988   2.461007
    48  H    8.944148   7.397291   6.669386   4.937869   4.577546
    49  H    9.494234   8.493381   7.076373   6.099530   4.685745
    50  H   19.623112  19.954010  21.947662  22.379530  24.301864
                   46         47         48         49         50
    46  H    0.000000
    47  H    3.175600   0.000000
    48  H    2.480854   3.066968   0.000000
    49  H    3.788826   2.402910   1.869595   0.000000
    50  H   24.810599  26.687281  27.271449  28.446012   0.000000
 Stoichiometry    C24H26
 Framework group  C1[X(C24H26)]
 Deg. of freedom   144
 Full point group                 C1      NOp   1
 Largest Abelian subgroup         C1      NOp   1
 Largest concise Abelian subgroup C1      NOp   1
                         Standard orientation:                         
 ---------------------------------------------------------------------
 Center     Atomic      Atomic             Coordinates (Angstroms)
 Number     Number       Type             X           Y           Z
 ---------------------------------------------------------------------
      1          6           0      -12.763288   -1.831554    0.007525
      2          6           0      -12.258401   -0.590727    0.027063
      3          6           0      -10.810410   -0.251276    0.021437
      4          6           0       -9.810333   -1.157565   -0.004254
      5          6           0       -8.357895   -0.828633   -0.009414
      6          6           0       -7.848100    0.421185    0.009808
      7          6           0       -6.396881    0.753711    0.006098
      8          6           0       -5.393000   -0.149188   -0.016157
      9          6           0       -3.942062    0.188077   -0.017648
     10          6           0       -3.439412    1.440572    0.001263
     11          6           0       -1.990340    1.776211    0.002256
     12          6           0       -0.983564    0.884512   -0.013759
     13          6           0        0.421687    1.345135   -0.007808
     14          6           0        1.439166    0.473396   -0.020052
     15          6           0        2.838955    0.947511   -0.010982
     16          6           0        3.863639    0.084643   -0.019787
     17          6           0        5.259560    0.570020   -0.008013
     18          6           0        6.290475   -0.285340   -0.013992
     19          6           0        7.683262    0.208959   -0.000157
     20          6           0        8.718712   -0.640874   -0.004197
     21          6           0       10.109379   -0.140690    0.010946
     22          6           0       11.147442   -0.987244    0.007918
     23          6           0       12.536356   -0.483832    0.023671
     24          6           0       13.574827   -1.322694    0.021012
     25          1           0      -12.145567   -2.719627   -0.014725
     26          1           0      -12.958710    0.239019    0.048962
     27          1           0      -10.591036    0.807465    0.040145
     28          1           0      -10.039222   -2.215086   -0.022598
     29          1           0       -7.698414   -1.685640   -0.030046
     30          1           0       -8.507793    1.277926    0.030334
     31          1           0       -6.177247    1.812354    0.024082
     32          1           0       -5.613086   -1.207985   -0.033563
     33          1           0       -3.275017   -0.663711   -0.034744
     34          1           0       -4.101186    2.295509    0.018202
     35          1           0       -1.746763    2.835358    0.018783
     36          1           0       -1.173758   -0.181671   -0.029734
     37          1           0        0.629390    2.412750    0.008305
     38          1           0        1.237449   -0.595193   -0.035404
     39          1           0        3.035877    2.017154    0.004461
     40          1           0        3.670475   -0.985556   -0.034541
     41          1           0        5.448327    1.641136    0.006820
     42          1           0        6.104685   -1.356862   -0.028290
     43          1           0        7.865824    1.281149    0.014239
     44          1           0        8.538151   -1.713310   -0.018253
     45          1           0       10.288210    0.932144    0.025119
     46          1           0       10.970523   -2.060322   -0.006088
     47          1           0       12.724776    0.586394    0.037829
     48          1           0       13.428161   -2.398669    0.007142
     49          1           0       14.587208   -0.931927    0.032871
     50          1           0      -13.839898   -1.968694    0.014024
 ---------------------------------------------------------------------
 Rotational constants (GHZ):           1.6540087           0.0244836           0.0241266
 Standard basis: 6-31G(d,p) (6D, 7F)
 There are   490 symmetry adapted cartesian basis functions of A   symmetry.
 There are   490 symmetry adapted basis functions of A   symmetry.
   490 basis functions,   854 primitive gaussians,   490 cartesian basis functions
    85 alpha electrons       85 beta electrons
       nuclear repulsion energy      1412.7684906460 Hartrees.
 NAtoms=   50 NActive=   50 NUniq=   50 SFac= 1.00D+00 NAtFMM=   60 NAOKFM=F Big=F
 Integral buffers will be    131072 words long.
 Raffenetti 2 integral format.
 Two-electron integral symmetry is turned on.
 One-electron integrals computed using PRISM.
 NBasis=   490 RedAO= T EigKep=  7.64D-04  NBF=   490
 NBsUse=   490 1.00D-06 EigRej= -1.00D+00 NBFU=   490
 ExpMin= 1.61D-01 ExpMax= 3.05D+03 ExpMxC= 4.57D+02 IAcc=3 IRadAn=         5 AccDes= 0.00D+00
 Harris functional with IExCor=  402 and IRadAn=       5 diagonalized for initial guess.
 HarFok:  IExCor=  402 AccDes= 0.00D+00 IRadAn=         5 IDoV= 1 UseB2=F ITyADJ=14
 ICtDFT=  3500011 ScaDFX=  1.000000  1.000000  1.000000  1.000000
 FoFCou: FMM=F IPFlag=           0 FMFlag=      100000 FMFlg1=           0
         NFxFlg=           0 DoJE=T BraDBF=F KetDBF=T FulRan=T
         wScrn=  0.000000 ICntrl=       500 IOpCl=  0 I1Cent=   200000004 NGrid=           0
         NMat0=    1 NMatS0=      1 NMatT0=    0 NMatD0=    1 NMtDS0=    0 NMtDT0=    0
 Petite list used in FoFCou.
 Requested convergence on RMS density matrix=1.00D-08 within 128 cycles.
 Requested convergence on MAX density matrix=1.00D-06.
 Requested convergence on             energy=1.00D-06.
 No special actions if energy rises.
 Integral accuracy reduced to 1.0D-05 until final iterations.
 Initial convergence to 1.0D-05 achieved.  Increase integral accuracy.
 SCF Done:  E(RB3LYP) =  -930.056961705     A.U. after   13 cycles
            NFock= 13  Conv=0.80D-08     -V/T= 2.0102

 **********************************************************************

            Population analysis using the SCF Density.

 **********************************************************************

 Orbital symmetries:
       Occupied  (A) (A) (A) (A) (A) (A) (A) (A) (A) (A) (A) (A)
                 (A) (A) (A) (A) (A) (A) (A) (A) (A) (A) (A) (A)
                 (A) (A) (A) (A) (A) (A) (A) (A) (A) (A) (A) (A)
                 (A) (A) (A) (A) (A) (A) (A) (A) (A) (A) (A) (A)
                 (A) (A) (A) (A) (A) (A) (A) (A) (A) (A) (A) (A)
                 (A) (A) (A) (A) (A) (A) (A) (A) (A) (A) (A) (A)
                 (A) (A) (A) (A) (A) (A) (A) (A) (A) (A) (A) (A)
                 (A)
       Virtual   (A) (A) (A) (A) (A) (A) (A) (A) (A) (A) (A) (A)
                 (A) (A) (A) (A) (A) (A) (A) (A) (A) (A) (A) (A)
                 (A) (A) (A) (A) (A) (A) (A) (A) (A) (A) (A) (A)
                 (A) (A) (A) (A) (A) (A) (A) (A) (A) (A) (A) (A)
                 (A) (A) (A) (A) (A) (A) (A) (A) (A) (A) (A) (A)
                 (A) (A) (A) (A) (A) (A) (A) (A) (A) (A) (A) (A)
                 (A) (A) (A) (A) (A) (A) (A) (A) (A) (A) (A) (A)
                 (A) (A) (A) (A) (A) (A) (A) (A) (A) (A) (A) (A)
                 (A) (A) (A) (A) (A) (A) (A) (A) (A) (A) (A) (A)
                 (A) (A) (A) (A) (A) (A) (A) (A) (A) (A) (A) (A)
                 (A) (A) (A) (A) (A) (A) (A) (A) (A) (A) (A) (A)
                 (A) (A) (A) (A) (A) (A) (A) (A) (A) (A) (A) (A)
                 (A) (A) (A) (A) (A) (A) (A) (A) (A) (A) (A) (A)
                 (A) (A) (A) (A) (A) (A) (A) (A) (A) (A) (A) (A)
                 (A) (A) (A) (A) (A) (A) (A) (A) (A) (A) (A) (A)
                 (A) (A) (A) (A) (A) (A) (A) (A) (A) (A) (A) (A)
                 (A) (A) (A) (A) (A) (A) (A) (A) (A) (A) (A) (A)
                 (A) (A) (A) (A) (A) (A) (A) (A) (A) (A) (A) (A)
                 (A) (A) (A) (A) (A) (A) (A) (A) (A) (A) (A) (A)
                 (A) (A) (A) (A) (A) (A) (A) (A) (A) (A) (A) (A)
                 (A) (A) (A) (A) (A) (A) (A) (A) (A) (A) (A) (A)
                 (A) (A) (A) (A) (A) (A) (A) (A) (A) (A) (A) (A)
                 (A) (A) (A) (A) (A) (A) (A) (A) (A) (A) (A) (A)
                 (A) (A) (A) (A) (A) (A) (A) (A) (A) (A) (A) (A)
                 (A) (A) (A) (A) (A) (A) (A) (A) (A) (A) (A) (A)
                 (A) (A) (A) (A) (A) (A) (A) (A) (A) (A) (A) (A)
                 (A) (A) (A) (A) (A) (A) (A) (A) (A) (A) (A) (A)
                 (A) (A) (A) (A) (A) (A) (A) (A) (A) (A) (A) (A)
                 (A) (A) (A) (A) (A) (A) (A) (A) (A) (A) (A) (A)
                 (A) (A) (A) (A) (A) (A) (A) (A) (A) (A) (A) (A)
                 (A) (A) (A) (A) (A) (A) (A) (A) (A) (A) (A) (A)
                 (A) (A) (A) (A) (A) (A) (A) (A) (A) (A) (A) (A)
                 (A) (A) (A) (A) (A) (A) (A) (A) (A) (A) (A) (A)
                 (A) (A) (A) (A) (A) (A) (A) (A) (A)
 The electronic state is 1-A.
 Alpha  occ. eigenvalues --  -10.19379 -10.19357 -10.19351 -10.19337 -10.19298
 Alpha  occ. eigenvalues --  -10.19289 -10.19280 -10.19261 -10.19250 -10.19227
 Alpha  occ. eigenvalues --  -10.19203 -10.19186 -10.19162 -10.19162 -10.19144
 Alpha  occ. eigenvalues --  -10.19137 -10.19121 -10.19108 -10.19097 -10.19071
 Alpha  occ. eigenvalues --  -10.19048 -10.18968 -10.18037 -10.17941  -0.82891
 Alpha  occ. eigenvalues --   -0.82422  -0.81889  -0.81066  -0.80070  -0.78851
 Alpha  occ. eigenvalues --   -0.77443  -0.75864  -0.74116  -0.72274  -0.70485
 Alpha  occ. eigenvalues --   -0.68608  -0.64889  -0.62553  -0.61243  -0.59042
 Alpha  occ. eigenvalues --   -0.57716  -0.56892  -0.56176  -0.55528  -0.55027
 Alpha  occ. eigenvalues --   -0.54553  -0.52584  -0.50305  -0.49804  -0.48443
 Alpha  occ. eigenvalues --   -0.47720  -0.47229  -0.46179  -0.45465  -0.44762
 Alpha  occ. eigenvalues --   -0.43838  -0.43064  -0.41706  -0.41165  -0.40831
 Alpha  occ. eigenvalues --   -0.39362  -0.38877  -0.38070  -0.37650  -0.37369
 Alpha  occ. eigenvalues --   -0.36932  -0.36313  -0.35880  -0.35372  -0.35206
 Alpha  occ. eigenvalues --   -0.34638  -0.34532  -0.34420  -0.33998  -0.33975
 Alpha  occ. eigenvalues --   -0.33222  -0.32945  -0.31697  -0.30152  -0.28374
 Alpha  occ. eigenvalues --   -0.26350  -0.24113  -0.21746  -0.19328  -0.17298
 Alpha virt. eigenvalues --   -0.08074  -0.05701  -0.03208  -0.00485   0.02120
 Alpha virt. eigenvalues --    0.04486   0.06802   0.07947   0.08266   0.08597
 Alpha virt. eigenvalues --    0.09425   0.09429   0.09870   0.10520   0.11199
 Alpha virt. eigenvalues --    0.11438   0.11922   0.12414   0.12601   0.12867
 Alpha virt. eigenvalues --    0.13365   0.14101   0.14246   0.14254   0.14792
 Alpha virt. eigenvalues --    0.15035   0.15460   0.16017   0.16530   0.17822
 Alpha virt. eigenvalues --    0.18814   0.19306   0.19873   0.20455   0.21140
 Alpha virt. eigenvalues --    0.22346   0.23063   0.25865   0.27094   0.27384
 Alpha virt. eigenvalues --    0.28620   0.28989   0.29875   0.31365   0.31916
 Alpha virt. eigenvalues --    0.32642   0.32741   0.33237   0.35088   0.36153
 Alpha virt. eigenvalues --    0.36712   0.37635   0.38643   0.39988   0.41648
 Alpha virt. eigenvalues --    0.41941   0.42021   0.43115   0.44733   0.45149
 Alpha virt. eigenvalues --    0.47076   0.48315   0.49407   0.51384   0.51774
 Alpha virt. eigenvalues --    0.52192   0.52910   0.53022   0.53665   0.53888
 Alpha virt. eigenvalues --    0.55099   0.55121   0.55893   0.56634   0.56651
 Alpha virt. eigenvalues --    0.57404   0.57540   0.58386   0.58471   0.58767
 Alpha virt. eigenvalues --    0.59022   0.59215   0.60117   0.60224   0.60623
 Alpha virt. eigenvalues --    0.60905   0.61159   0.62295   0.62525   0.63050
 Alpha virt. eigenvalues --    0.63226   0.64018   0.64267   0.64416   0.65059
 Alpha virt. eigenvalues --    0.65379   0.65390   0.66082   0.66441   0.66663
 Alpha virt. eigenvalues --    0.67098   0.67916   0.68598   0.68722   0.69641
 Alpha virt. eigenvalues --    0.69755   0.71229   0.71944   0.73450   0.75238
 Alpha virt. eigenvalues --    0.75910   0.78728   0.79537   0.80557   0.80875
 Alpha virt. eigenvalues --    0.81496   0.82634   0.83076   0.83758   0.84546
 Alpha virt. eigenvalues --    0.84614   0.84944   0.85535   0.86206   0.86393
 Alpha virt. eigenvalues --    0.86776   0.87046   0.87249   0.87685   0.88227
 Alpha virt. eigenvalues --    0.88469   0.89129   0.90122   0.91018   0.91522
 Alpha virt. eigenvalues --    0.92163   0.92416   0.93012   0.93575   0.93858
 Alpha virt. eigenvalues --    0.94315   0.95202   0.96100   0.97633   0.98298
 Alpha virt. eigenvalues --    1.02171   1.03005   1.03334   1.04168   1.04864
 Alpha virt. eigenvalues --    1.05523   1.05920   1.06217   1.07101   1.08202
 Alpha virt. eigenvalues --    1.08968   1.09504   1.10397   1.10956   1.11826
 Alpha virt. eigenvalues --    1.15772   1.17381   1.17609   1.18842   1.20815
 Alpha virt. eigenvalues --    1.21133   1.22131   1.23510   1.24455   1.27719
 Alpha virt. eigenvalues --    1.28329   1.29127   1.29651   1.29738   1.30511
 Alpha virt. eigenvalues --    1.30621   1.31146   1.31373   1.31534   1.32544
 Alpha virt. eigenvalues --    1.32654   1.32877   1.33061   1.33606   1.34529
 Alpha virt. eigenvalues --    1.36506   1.37753   1.38417   1.38554   1.40709
 Alpha virt. eigenvalues --    1.43000   1.43471   1.44254   1.45584   1.46125
 Alpha virt. eigenvalues --    1.46631   1.46829   1.47931   1.48059   1.48617
 Alpha virt. eigenvalues --    1.49178   1.50623   1.50992   1.51690   1.51812
 Alpha virt. eigenvalues --    1.53418   1.54987   1.66502   1.73779   1.75230
 Alpha virt. eigenvalues --    1.76187   1.76421   1.76585   1.76905   1.76993
 Alpha virt. eigenvalues --    1.77604   1.77961   1.78239   1.78772   1.82996
 Alpha virt. eigenvalues --    1.85282   1.85895   1.86232   1.87625   1.87938
 Alpha virt. eigenvalues --    1.89668   1.89943   1.91892   1.92210   1.92657
 Alpha virt. eigenvalues --    1.92950   1.93844   1.93864   1.94441   1.94876
 Alpha virt. eigenvalues --    1.95246   1.96482   1.97073   1.98074   1.98363
 Alpha virt. eigenvalues --    2.00795   2.01203   2.02080   2.03564   2.04179
 Alpha virt. eigenvalues --    2.04284   2.05349   2.07436   2.08199   2.09297
 Alpha virt. eigenvalues --    2.09498   2.10007   2.11751   2.12156   2.13475
 Alpha virt. eigenvalues --    2.14416   2.15810   2.16877   2.17891   2.18147
 Alpha virt. eigenvalues --    2.19398   2.19973   2.21544   2.21760   2.23406
 Alpha virt. eigenvalues --    2.24217   2.24337   2.26343   2.26993   2.28635
 Alpha virt. eigenvalues --    2.29957   2.30862   2.32832   2.33257   2.34814
 Alpha virt. eigenvalues --    2.36530   2.37110   2.37859   2.40208   2.41296
 Alpha virt. eigenvalues --    2.41573   2.41608   2.44350   2.44904   2.46060
 Alpha virt. eigenvalues --    2.46391   2.47211   2.47331   2.48380   2.48403
 Alpha virt. eigenvalues --    2.49534   2.49716   2.50342   2.50914   2.50970
 Alpha virt. eigenvalues --    2.51710   2.51993   2.52710   2.53417   2.53942
 Alpha virt. eigenvalues --    2.54139   2.55928   2.56080   2.56441   2.58005
 Alpha virt. eigenvalues --    2.58938   2.59282   2.59588   2.59842   2.61220
 Alpha virt. eigenvalues --    2.61569   2.62377   2.63120   2.63154   2.64332
 Alpha virt. eigenvalues --    2.65057   2.65800   2.66622   2.68025   2.68599
 Alpha virt. eigenvalues --    2.68842   2.69318   2.69562   2.69809   2.70590
 Alpha virt. eigenvalues --    2.71076   2.71630   2.71718   2.73268   2.74131
 Alpha virt. eigenvalues --    2.78927   2.79768   2.82668   2.83718   2.86553
 Alpha virt. eigenvalues --    2.86636   2.88474   2.89675   2.91393   2.91928
 Alpha virt. eigenvalues --    2.92170   2.92987   2.94520   2.94741   2.95567
 Alpha virt. eigenvalues --    2.97130   2.97470   2.98975   2.99561   2.99768
 Alpha virt. eigenvalues --    3.00996   3.04046   3.10554   3.16101   3.20188
 Alpha virt. eigenvalues --    3.26244   3.28012   3.32966   3.34303   3.34911
 Alpha virt. eigenvalues --    3.35091   3.35408   3.36529   3.38567   3.39002
 Alpha virt. eigenvalues --    3.41264   3.44661   3.48750   3.49214   3.52752
 Alpha virt. eigenvalues --    3.54119   3.55882   3.57378   3.60069   3.61441
 Alpha virt. eigenvalues --    3.65087   3.66006   3.67260   3.71020   3.74769
 Alpha virt. eigenvalues --    3.80281   4.10687   4.12204   4.13658   4.13750
 Alpha virt. eigenvalues --    4.13953   4.14357   4.15151   4.16023   4.17381
 Alpha virt. eigenvalues --    4.18989   4.20858   4.25688   4.28016   4.31020
 Alpha virt. eigenvalues --    4.35685   4.39901   4.45226   4.50398   4.56160
 Alpha virt. eigenvalues --    4.61359   4.66514   4.70619   4.74022   4.76133
          Condensed to atoms (all electrons):
               1          2          3          4          5          6
     1  C    4.951364   0.645470  -0.046259  -0.020333   0.000251  -0.000006
     2  C    0.645470   4.734627   0.424800  -0.027417   0.004148   0.000271
     3  C   -0.046259   0.424800   4.858762   0.613578  -0.034228  -0.018102
     4  C   -0.020333  -0.027417   0.613578   4.851534   0.415829  -0.031833
     5  C    0.000251   0.004148  -0.034228   0.415829   4.863476   0.608064
     6  C   -0.000006   0.000271  -0.018102  -0.031833   0.608064   4.858366
     7  C    0.000000  -0.000002   0.000299   0.004101  -0.032811   0.417551
     8  C   -0.000000   0.000000  -0.000008   0.000268  -0.017818  -0.032304
     9  C    0.000000  -0.000000   0.000000  -0.000001   0.000279   0.004079
    10  C   -0.000000   0.000000   0.000000   0.000000  -0.000007   0.000283
    11  C   -0.000000  -0.000000   0.000000  -0.000000   0.000000  -0.000002
    12  C    0.000000  -0.000000  -0.000000   0.000000   0.000000   0.000000
    13  C    0.000000   0.000000  -0.000000  -0.000000   0.000000  -0.000000
    14  C    0.000000   0.000000   0.000000   0.000000   0.000000  -0.000000
    15  C    0.000000   0.000000   0.000000   0.000000   0.000000   0.000000
    16  C    0.000000   0.000000   0.000000   0.000000  -0.000000   0.000000
    17  C    0.000000   0.000000   0.000000   0.000000   0.000000   0.000000
    18  C    0.000000   0.000000   0.000000   0.000000   0.000000   0.000000
    19  C    0.000000   0.000000   0.000000   0.000000   0.000000   0.000000
    20  C    0.000000   0.000000   0.000000   0.000000   0.000000   0.000000
    21  C    0.000000   0.000000   0.000000   0.000000   0.000000   0.000000
    22  C    0.000000   0.000000   0.000000   0.000000   0.000000   0.000000
    23  C    0.000000   0.000000   0.000000   0.000000   0.000000   0.000000
    24  C    0.000000   0.000000   0.000000   0.000000   0.000000   0.000000
    25  H    0.378275  -0.029685  -0.015057   0.004461   0.000001   0.000002
    26  H   -0.054969   0.374987  -0.038559   0.005139  -0.000144   0.000006
    27  H    0.006164  -0.043217   0.370000  -0.051867  -0.012691   0.003061
    28  H    0.003608  -0.011970  -0.052103   0.368699  -0.039012   0.005198
    29  H    0.000005  -0.000146   0.005299  -0.039827   0.368989  -0.051618
    30  H    0.000001  -0.000019   0.003117  -0.012388  -0.051610   0.368943
    31  H    0.000000  -0.000000   0.000005  -0.000148   0.005287  -0.039515
    32  H    0.000000   0.000000  -0.000000  -0.000016   0.003117  -0.012325
    33  H   -0.000000  -0.000000  -0.000000  -0.000000   0.000005  -0.000146
    34  H   -0.000000   0.000000   0.000000  -0.000000   0.000000  -0.000005
    35  H   -0.000000   0.000000   0.000000  -0.000000  -0.000000  -0.000000
    36  H    0.000000  -0.000000  -0.000000   0.000000   0.000000  -0.000000
    37  H    0.000000   0.000000   0.000000  -0.000000  -0.000000   0.000000
    38  H    0.000000   0.000000   0.000000  -0.000000  -0.000000   0.000000
    39  H    0.000000   0.000000   0.000000   0.000000   0.000000  -0.000000
    40  H    0.000000   0.000000   0.000000   0.000000   0.000000   0.000000
    41  H    0.000000   0.000000   0.000000   0.000000   0.000000   0.000000
    42  H    0.000000   0.000000   0.000000   0.000000   0.000000   0.000000
    43  H    0.000000   0.000000   0.000000   0.000000   0.000000   0.000000
    44  H    0.000000   0.000000   0.000000   0.000000   0.000000   0.000000
    45  H    0.000000   0.000000   0.000000   0.000000   0.000000   0.000000
    46  H    0.000000   0.000000   0.000000   0.000000   0.000000   0.000000
    47  H    0.000000   0.000000   0.000000   0.000000   0.000000   0.000000
    48  H    0.000000   0.000000   0.000000   0.000000   0.000000   0.000000
    49  H    0.000000   0.000000   0.000000   0.000000   0.000000   0.000000
    50  H    0.373187  -0.020567   0.004926   0.000187  -0.000002   0.000000
               7          8          9         10         11         12
     1  C    0.000000  -0.000000   0.000000  -0.000000  -0.000000   0.000000
     2  C   -0.000002   0.000000  -0.000000   0.000000  -0.000000  -0.000000
     3  C    0.000299  -0.000008   0.000000   0.000000   0.000000  -0.000000
     4  C    0.004101   0.000268  -0.000001   0.000000  -0.000000   0.000000
     5  C   -0.032811  -0.017818   0.000279  -0.000007   0.000000   0.000000
     6  C    0.417551  -0.032304   0.004079   0.000283  -0.000002   0.000000
     7  C    4.860736   0.606994  -0.032510  -0.017702   0.000277  -0.000007
     8  C    0.606994   4.859933   0.417763  -0.032665   0.004174   0.000252
     9  C   -0.032510   0.417763   4.862719   0.606943  -0.031919  -0.017349
    10  C   -0.017702  -0.032665   0.606943   4.869221   0.405274  -0.032725
    11  C    0.000277   0.004174  -0.031919   0.405274   4.886380   0.584482
    12  C   -0.000007   0.000252  -0.017349  -0.032725   0.584482   4.856272
    13  C    0.000000  -0.000004   0.000283   0.004000  -0.016530   0.414036
    14  C   -0.000000   0.000000   0.000012  -0.000233   0.002711  -0.019619
    15  C   -0.000000   0.000000  -0.000000   0.000002  -0.000255   0.003686
    16  C    0.000000  -0.000000  -0.000000  -0.000000   0.000004  -0.000260
    17  C    0.000000   0.000000  -0.000000   0.000000  -0.000000   0.000002
    18  C    0.000000   0.000000   0.000000  -0.000000  -0.000000  -0.000000
    19  C    0.000000   0.000000  -0.000000   0.000000   0.000000   0.000000
    20  C    0.000000   0.000000   0.000000   0.000000   0.000000   0.000000
    21  C    0.000000   0.000000   0.000000   0.000000  -0.000000   0.000000
    22  C    0.000000   0.000000   0.000000   0.000000   0.000000  -0.000000
    23  C    0.000000   0.000000   0.000000   0.000000   0.000000   0.000000
    24  C    0.000000   0.000000   0.000000   0.000000   0.000000   0.000000
    25  H   -0.000000   0.000000   0.000000  -0.000000  -0.000000   0.000000
    26  H   -0.000000  -0.000000  -0.000000   0.000000   0.000000  -0.000000
    27  H    0.000004  -0.000001  -0.000000   0.000000   0.000000  -0.000000
    28  H   -0.000147   0.000005  -0.000000  -0.000000  -0.000000   0.000000
    29  H   -0.012385   0.003103  -0.000012   0.000000  -0.000000   0.000000
    30  H   -0.039390   0.005249  -0.000148   0.000005  -0.000000  -0.000000
    31  H    0.369039  -0.051769  -0.012398   0.003120  -0.000014  -0.000000
    32  H   -0.051366   0.368854  -0.039462   0.005182  -0.000146   0.000005
    33  H    0.005200  -0.039162   0.368749  -0.052384  -0.012422   0.003243
    34  H    0.003042  -0.012510  -0.051479   0.368825  -0.039048   0.005293
    35  H    0.000006  -0.000141   0.005167  -0.038825   0.374981  -0.058352
    36  H    0.000000   0.000010   0.003385  -0.011672  -0.046037   0.374536
    37  H   -0.000000   0.000000  -0.000002   0.000161  -0.005132  -0.048584
    38  H    0.000000  -0.000000  -0.000002   0.000001   0.000546  -0.009387
    39  H   -0.000000   0.000000   0.000000  -0.000000  -0.000005   0.000250
    40  H   -0.000000   0.000000  -0.000000   0.000000  -0.000000  -0.000004
    41  H    0.000000  -0.000000   0.000000   0.000000   0.000000  -0.000000
    42  H    0.000000   0.000000   0.000000  -0.000000   0.000000   0.000000
    43  H    0.000000   0.000000  -0.000000   0.000000   0.000000  -0.000000
    44  H    0.000000   0.000000   0.000000  -0.000000   0.000000  -0.000000
    45  H    0.000000   0.000000   0.000000   0.000000  -0.000000   0.000000
    46  H    0.000000   0.000000   0.000000   0.000000   0.000000  -0.000000
    47  H    0.000000   0.000000   0.000000   0.000000   0.000000   0.000000
    48  H    0.000000   0.000000   0.000000   0.000000   0.000000   0.000000
    49  H    0.000000   0.000000   0.000000   0.000000   0.000000   0.000000
    50  H   -0.000000   0.000000  -0.000000   0.000000   0.000000   0.000000
              13         14         15         16         17         18
     1  C    0.000000   0.000000   0.000000   0.000000   0.000000   0.000000
     2  C    0.000000   0.000000   0.000000   0.000000   0.000000   0.000000
     3  C   -0.000000   0.000000   0.000000   0.000000   0.000000   0.000000
     4  C   -0.000000   0.000000   0.000000   0.000000   0.000000   0.000000
     5  C    0.000000   0.000000   0.000000  -0.000000   0.000000   0.000000
     6  C   -0.000000  -0.000000   0.000000   0.000000   0.000000   0.000000
     7  C    0.000000  -0.000000  -0.000000   0.000000   0.000000   0.000000
     8  C   -0.000004   0.000000   0.000000  -0.000000   0.000000   0.000000
     9  C    0.000283   0.000012  -0.000000  -0.000000  -0.000000   0.000000
    10  C    0.004000  -0.000233   0.000002  -0.000000   0.000000  -0.000000
    11  C   -0.016530   0.002711  -0.000255   0.000004  -0.000000  -0.000000
    12  C    0.414036  -0.019619   0.003686  -0.000260   0.000002  -0.000000
    13  C    4.861920   0.561533  -0.016854   0.002563  -0.000251   0.000004
    14  C    0.561533   4.889683   0.397748  -0.017800   0.003661  -0.000256
    15  C   -0.016854   0.397748   4.880489   0.563081  -0.017078   0.002566
    16  C    0.002563  -0.017800   0.563081   4.881600   0.397962  -0.017926
    17  C   -0.000251   0.003661  -0.017078   0.397962   4.879717   0.563910
    18  C    0.000004  -0.000256   0.002566  -0.017926   0.563910   4.882857
    19  C   -0.000000   0.000002  -0.000255   0.003678  -0.017015   0.396341
    20  C   -0.000000  -0.000000   0.000004  -0.000256   0.002536  -0.017566
    21  C    0.000000   0.000000  -0.000000   0.000002  -0.000255   0.003652
    22  C    0.000000   0.000000  -0.000000  -0.000000   0.000004  -0.000255
    23  C   -0.000000   0.000000   0.000000   0.000000  -0.000000   0.000002
    24  C    0.000000  -0.000000   0.000000   0.000000  -0.000000  -0.000000
    25  H    0.000000   0.000000   0.000000   0.000000   0.000000   0.000000
    26  H    0.000000   0.000000   0.000000   0.000000   0.000000   0.000000
    27  H    0.000000   0.000000   0.000000   0.000000   0.000000   0.000000
    28  H    0.000000  -0.000000   0.000000   0.000000   0.000000   0.000000
    29  H    0.000000  -0.000000  -0.000000   0.000000   0.000000   0.000000
    30  H    0.000000  -0.000000  -0.000000   0.000000   0.000000   0.000000
    31  H    0.000000   0.000000  -0.000000   0.000000  -0.000000   0.000000
    32  H    0.000000  -0.000000  -0.000000   0.000000  -0.000000   0.000000
    33  H    0.000044  -0.000000  -0.000000   0.000000  -0.000000   0.000000
    34  H   -0.000128   0.000002  -0.000000   0.000000  -0.000000   0.000000
    35  H   -0.010478   0.000595  -0.000005  -0.000000   0.000000   0.000000
    36  H   -0.047978  -0.005673   0.000245  -0.000002  -0.000000   0.000000
    37  H    0.381217  -0.053188  -0.009378   0.000565  -0.000005  -0.000000
    38  H   -0.052171   0.380122  -0.047549  -0.005257   0.000239  -0.000003
    39  H   -0.005313  -0.048161   0.381051  -0.052868  -0.009387   0.000554
    40  H    0.000527  -0.009191  -0.052615   0.380760  -0.047648  -0.005228
    41  H   -0.000004   0.000257  -0.005318  -0.048070   0.380978  -0.052904
    42  H   -0.000000  -0.000003   0.000533  -0.009222  -0.052596   0.380805
    43  H    0.000000  -0.000000  -0.000004   0.000255  -0.005306  -0.048029
    44  H    0.000000   0.000000  -0.000000  -0.000003   0.000537  -0.009247
    45  H    0.000000  -0.000000   0.000000  -0.000000  -0.000004   0.000255
    46  H    0.000000  -0.000000   0.000000   0.000000  -0.000000  -0.000003
    47  H   -0.000000   0.000000   0.000000  -0.000000   0.000000  -0.000000
    48  H    0.000000  -0.000000   0.000000  -0.000000   0.000000   0.000000
    49  H    0.000000   0.000000   0.000000   0.000000  -0.000000   0.000000
    50  H    0.000000   0.000000   0.000000   0.000000   0.000000   0.000000
              19         20         21         22         23         24
     1  C    0.000000   0.000000   0.000000   0.000000   0.000000   0.000000
     2  C    0.000000   0.000000   0.000000   0.000000   0.000000   0.000000
     3  C    0.000000   0.000000   0.000000   0.000000   0.000000   0.000000
     4  C    0.000000   0.000000   0.000000   0.000000   0.000000   0.000000
     5  C    0.000000   0.000000   0.000000   0.000000   0.000000   0.000000
     6  C    0.000000   0.000000   0.000000   0.000000   0.000000   0.000000
     7  C    0.000000   0.000000   0.000000   0.000000   0.000000   0.000000
     8  C    0.000000   0.000000   0.000000   0.000000   0.000000   0.000000
     9  C   -0.000000   0.000000   0.000000   0.000000   0.000000   0.000000
    10  C    0.000000   0.000000   0.000000   0.000000   0.000000   0.000000
    11  C    0.000000   0.000000  -0.000000   0.000000   0.000000   0.000000
    12  C    0.000000   0.000000   0.000000  -0.000000   0.000000   0.000000
    13  C   -0.000000  -0.000000   0.000000   0.000000  -0.000000   0.000000
    14  C    0.000002  -0.000000   0.000000   0.000000   0.000000  -0.000000
    15  C   -0.000255   0.000004  -0.000000  -0.000000   0.000000   0.000000
    16  C    0.003678  -0.000256   0.000002  -0.000000   0.000000   0.000000
    17  C   -0.017015   0.002536  -0.000255   0.000004  -0.000000  -0.000000
    18  C    0.396341  -0.017566   0.003652  -0.000255   0.000002  -0.000000
    19  C    4.880302   0.563462  -0.016365   0.002503  -0.000268   0.000005
    20  C    0.563462   4.888093   0.393055  -0.018546   0.004050  -0.000277
    21  C   -0.016365   0.393055   4.868251   0.577747  -0.019879   0.002689
    22  C    0.002503  -0.018546   0.577747   4.861696   0.421045  -0.031503
    23  C   -0.000268   0.004050  -0.019879   0.421045   4.739895   0.618711
    24  C    0.000005  -0.000277   0.002689  -0.031503   0.618711   4.965601
    25  H    0.000000   0.000000   0.000000   0.000000   0.000000   0.000000
    26  H    0.000000   0.000000   0.000000   0.000000   0.000000   0.000000
    27  H    0.000000   0.000000   0.000000   0.000000   0.000000   0.000000
    28  H    0.000000   0.000000   0.000000   0.000000   0.000000   0.000000
    29  H    0.000000   0.000000   0.000000   0.000000   0.000000   0.000000
    30  H    0.000000   0.000000   0.000000   0.000000   0.000000   0.000000
    31  H    0.000000   0.000000   0.000000   0.000000   0.000000   0.000000
    32  H    0.000000   0.000000   0.000000   0.000000   0.000000   0.000000
    33  H   -0.000000   0.000000   0.000000   0.000000   0.000000   0.000000
    34  H   -0.000000   0.000000   0.000000   0.000000   0.000000   0.000000
    35  H   -0.000000   0.000000  -0.000000   0.000000   0.000000   0.000000
    36  H   -0.000000  -0.000000   0.000000  -0.000000   0.000000   0.000000
    37  H    0.000000   0.000000  -0.000000   0.000000  -0.000000   0.000000
    38  H   -0.000000   0.000000  -0.000000  -0.000000   0.000000  -0.000000
    39  H   -0.000004  -0.000000   0.000000   0.000000  -0.000000   0.000000
    40  H    0.000242  -0.000003  -0.000000   0.000000  -0.000000  -0.000000
    41  H   -0.009375   0.000551  -0.000004  -0.000000   0.000000   0.000000
    42  H   -0.047726  -0.005237   0.000242  -0.000003  -0.000000   0.000000
    43  H    0.380995  -0.053021  -0.009284   0.000539  -0.000004   0.000000
    44  H   -0.052602   0.381056  -0.047918  -0.005206   0.000234  -0.000003
    45  H   -0.005266  -0.048085   0.381373  -0.053625  -0.009099   0.000489
    46  H    0.000547  -0.009548  -0.050997   0.379500  -0.046653  -0.005148
    47  H   -0.000005   0.000269  -0.005760  -0.047492   0.381961  -0.050987
    48  H   -0.000000  -0.000000   0.000563  -0.012733  -0.035910   0.382770
    49  H   -0.000000   0.000003  -0.000223   0.004039  -0.020426   0.369502
    50  H    0.000000   0.000000   0.000000   0.000000   0.000000   0.000000
              25         26         27         28         29         30
     1  C    0.378275  -0.054969   0.006164   0.003608   0.000005   0.000001
     2  C   -0.029685   0.374987  -0.043217  -0.011970  -0.000146  -0.000019
     3  C   -0.015057  -0.038559   0.370000  -0.052103   0.005299   0.003117
     4  C    0.004461   0.005139  -0.051867   0.368699  -0.039827  -0.012388
[...]
 000024,-0.00000003,-0.00000011,-0.00000047,0.00000068,-0.00000010,0.00
 000027,-0.00000002,0.00000036,-0.00000079,0.00000013,0.00000057,0.0000
 0042,0.00000020,0.,-0.00000062,0.00000087,-0.00000031,0.00000049,0.000
 00015,0.00000021,-0.00000036,0.00000038,0.00000073,0.00000027,0.000000
 48,0.00000046,-0.00000033,0.00000070,0.00000118,0.00000050,0.00000103,
 0.00000086,-0.00000059,0.00000093,0.00000154,0.00000226,0.00000224,0.0
 0000228,-0.00000281,0.00000569,0.00000258,0.00001583,-0.00000489,0.000
 01974,-0.00001869,0.00006294,0.00013182,-0.00009298,0.00009804,0.00041
 077,0.00317572,0.00186997,0.00074271,0.00904972,0.04476149,0.00001066,
 -0.00000485,0.00000051,-0.00000759,0.00001445,0.00000792,0.00000614,-0
 .00001035,-0.00000470,-0.00001695,-0.00000937,0.00000100,0.00001353,0.
 00000526,-0.00000067,-0.00000594,0.00002096,-0.00000574,0.00000722,-0.
 00001528,0.00000375,-0.00001886,-0.00000815,0.00001548,0.00001682,0.00
 000424,-0.00001170,-0.00001219,0.00001829,-0.00002001,0.00001469,-0.00
 001477,0.00001146,-0.00001619,-0.00000256,0.00002397,0.00001568,0.0000
 0097,-0.00002295,-0.00001415,-0.00000704,0.00003183,0.00001377,0.00000
 663,-0.00003239,-0.00000823,-0.00001630,0.00004531,0.00000922,0.000013
 68,-0.00005580,0.00001475,-0.00003149,0.00007592,0.00003251,0.00002009
 ,-0.00010801,-0.00000039,-0.00027686,0.00048012,-0.00157354,-0.0001543
 3,0.00055845,0.00147203,0.00200728,-0.00362480,0.10171052,0.04488957,-
 0.27002807,0.01096784,0.00399478,-0.01733162,-0.00000101,-0.00000041,0
 .00000042,0.00000179,-0.00000362,-0.00000062,-0.00000082,0.00000089,-0
 .00000187,0.00000435,0.00000066,-0.00000129,-0.00000108,0.00000007,0.0
 0000155,0.00000328,-0.00000399,0.00000146,-0.00000154,0.00000049,-0.00
 000105,0.00000475,-0.00000004,-0.00000262,-0.00000152,0.00000041,0.000
 00132,0.00000449,-0.00000387,0.00000280,-0.00000187,0.00000116,-0.0000
 0005,0.00000339,0.00000037,-0.00000349,0.00000063,0.00000102,-0.000000
 60,0.00000409,0.00000058,-0.00000543,0.00000106,0.00000051,-0.00000085
 ,0.00000501,0.00000097,-0.00000686,0.00000158,0.00000082,0.00000038,0.
 00000764,0.00000201,-0.00000838,0.00001297,-0.00000336,0.00000379,-0.0
 0013286,0.00013630,-0.00007374,0.00050899,-0.00036546,0.00052818,0.000
 82436,0.00066822,0.00106766,-0.11166962,-0.05343702,0.28818810,0.00000
 204,-0.00000076,-0.00000003,-0.00000161,0.00000270,0.00000141,0.000001
 27,-0.00000228,-0.00000087,-0.00000351,-0.00000130,0.00000016,0.000003
 16,0.00000117,-0.00000069,-0.00000228,0.00000368,-0.00000082,0.0000022
 6,-0.00000402,0.00000155,-0.00000515,0.00000006,0.00000219,0.00000546,
 0.00000050,-0.00000432,-0.00000611,0.00000356,-0.00000173,0.00000640,-
 0.00000587,0.00000526,-0.00000858,0.00000393,0.00000128,0.00000952,-0.
 00000568,0.00000148,-0.00001421,0.00000387,-0.00000043,0.00001504,-0.0
 0000910,0.00000455,-0.00001763,0.00001866,0.00000181,0.00002574,-0.000
 02058,0.00001047,-0.00005536,-0.00001531,-0.00001923,0.00007109,-0.000
 03249,0.00004027,-0.00001845,0.00011685,0.00010599,0.00007833,-0.00005
 485,-0.00003540,-0.00003055,-0.00241430,-0.00255558,0.01041422,0.00340
 109,-0.01499167,-0.09743408,-0.01169170,0.10318027,-0.00000018,-0.0000
 0012,0.00000013,0.00000033,-0.00000072,-0.00000005,-0.00000014,0.00000
 017,-0.00000027,0.00000078,0.00000015,-0.00000019,-0.00000015,0.000000
 04,0.00000039,0.00000058,-0.00000063,0.00000038,-0.00000018,0.00000014
 ,-0.00000019,0.00000083,0.00000007,-0.00000049,-0.00000015,0.00000023,
 0.00000037,0.00000068,-0.00000042,0.00000057,-0.00000009,0.00000032,-0
 .00000021,0.00000068,0.00000030,-0.00000065,0.00000029,0.00000038,-0.0
 0000041,0.00000087,0.00000050,-0.00000094,0.00000070,0.00000105,-0.000
 00038,0.00000103,0.00000089,-0.00000112,-0.00000079,-0.00000304,-0.000
 00201,0.00000005,0.00000261,-0.00000160,0.00000645,0.00000261,0.000004
 57,-0.00003375,0.00001496,0.00000675,-0.00005145,0.00010170,0.00020117
 ,0.00006274,-0.00011081,0.00054499,0.00065475,0.00522447,-0.00090698,0
 .09219080,-0.00000091,0.00000046,-0.00000010,0.00000062,-0.00000113,-0
 .00000061,-0.00000037,0.00000090,0.00000021,0.00000137,0.00000078,-0.0
 0000016,-0.00000115,-0.00000039,-0.00000015,0.00000044,-0.00000172,0.0
 0000041,-0.00000048,0.00000106,-0.00000059,0.00000131,0.00000051,-0.00
 000138,-0.00000139,-0.00000061,0.00000080,0.00000074,-0.00000181,0.000
 00141,-0.00000116,0.00000067,-0.00000120,0.00000128,0.00000051,-0.0000
 0128,-0.00000126,-0.00000082,0.00000106,-0.00000135,-0.00000406,-0.000
 00340,-0.00000050,-0.00000091,0.00000168,0.00000752,0.00001799,0.00000
 497,-0.00000179,-0.00000810,0.00000003,-0.00004000,-0.00007269,-0.0000
 3188,0.00001292,0.00002619,0.00001118,0.00010175,0.00025138,0.00005388
 ,0.00013577,-0.00008896,-0.00010761,-0.00381331,-0.00479993,-0.0018953
 4,-0.00701475,0.00152062,0.01596665,-0.01049902,-0.04979450,0.05299172
 ,0.00000011,-0.00000004,-0.00000002,-0.00000011,0.00000019,0.00000008,
 -0.00000001,-0.00000012,0.00000026,-0.00000042,-0.00000006,0.00000021,
 0.00000015,0.,0.00000004,-0.00000017,0.00000032,0.00000003,0.00000013,
 0.00000006,0.00000028,-0.00000029,0.00000017,0.00000036,0.00000024,0.0
 0000028,0.00000006,-0.00000022,0.00000053,-0.00000011,0.00000033,0.000
 00034,0.00000017,0.00000006,0.00000041,0.00000038,0.00000013,0.0000003
 6,0.00000014,0.00000030,0.00000080,0.00000061,0.00000080,0.00000195,0.
 00000066,0.00000082,0.00000129,0.00000072,-0.00000343,-0.00000600,-0.0
 0000337,0.00000326,0.00000224,0.00000110,0.00000199,0.00001477,0.00000
 062,0.00003158,-0.00000957,-0.00000355,0.00010654,0.00030385,-0.000038
 91,0.00055036,0.00015416,-0.00029775,0.00532750,0.00647798,0.00488084,
 0.01110859,0.04176249,-0.00000027,0.,0.00000016,0.00000034,-0.00000016
 ,-0.00000004,-0.00000026,0.00000061,0.,0.00000081,-0.00000035,0.000000
 08,-0.00000119,-0.00000004,0.00000039,0.00000154,-0.00000028,-0.000000
 28,-0.00000137,0.00000165,-0.00000114,0.00000249,-0.00000170,0.0000004
 1,-0.00000359,0.00000038,0.00000214,0.00000478,-0.00000113,-0.00000198
 ,-0.00000511,0.00000378,-0.00000385,0.00000743,-0.00000437,0.00000229,
 -0.00000918,0.00000610,-0.00000545,0.00001274,-0.00000959,0.00000281,-
 0.00001672,0.00001171,-0.00000987,0.00002920,-0.00000794,0.00000926,-0
 .00003576,0.00002179,-0.00002116,0.00004155,-0.00006048,-0.00000374,-0
 .00007150,0.00006380,-0.00003737,0.00014300,0.00003646,0.00006578,-0.0
 0050459,0.00011329,0.00023702,0.00088634,-0.00351625,0.00026031,0.0106
 4695,0.00389662,-0.01721821,0.10024705,0.05437176,-0.28315128,0.000000
 02,-0.00000002,-0.00000010,-0.00000001,0.,-0.00000007,-0.00000006,-0.0
 0000006,0.,-0.00000017,-0.00000004,0.00000003,0.00000002,-0.00000014,-
 0.00000004,0.00000002,-0.00000010,-0.00000003,-0.00000008,-0.00000002,
 0.00000019,-0.00000018,0.00000009,0.00000024,0.00000008,-0.00000013,0.
 00000012,0.00000014,-0.00000013,0.00000007,-0.00000006,0.00000017,0.00
 000045,-0.00000018,0.00000016,0.00000042,-0.00000004,-0.00000003,0.000
 00066,-0.00000039,0.00000035,0.00000076,0.00000022,0.00000037,0.000001
 42,-0.00000093,0.00000063,0.00000148,-0.00000104,-0.00000383,0.0000016
 4,-0.00000320,0.00000185,0.00000337,0.00000612,-0.00000011,0.00000912,
 -0.00003422,0.00001574,0.00000474,0.00018928,-0.00003329,0.00020074,-0
 .00108915,0.00047266,0.00038818,-0.00116051,0.00500019,0.00000871,-0.1
 0895305,-0.06214955,0.30091543,-0.00000757,0.00000330,-0.00000032,0.00
 000556,-0.00001007,-0.00000544,-0.00000432,0.00000774,0.00000307,0.000
 01227,0.00000597,-0.00000077,-0.00001035,-0.00000388,0.00000097,0.0000
 0563,-0.00001440,0.00000359,-0.00000614,0.00001200,-0.00000402,0.00001
 504,0.00000339,-0.00001000,-0.00001483,-0.00000286,0.00001076,0.000013
 41,-0.00001304,0.00001117,-0.00001507,0.00001374,-0.00001231,0.0000178
 8,-0.00000509,-0.00001241,-0.00001941,0.00000653,0.00000764,0.00002554
 ,-0.00000063,-0.00001212,-0.00002639,0.00000768,0.00000629,0.00002101,
 -0.00003089,-0.00002635,-0.00004017,0.00002025,0.00000674,0.00009591,0
 .00009493,0.00001223,-0.00012908,0.00002229,0.00001090,-0.00015980,-0.
 00044473,-0.00040050,-0.00057229,0.00021456,0.00039372,0.00255832,0.00
 470680,-0.00108508,-0.01041008,0.00441210,0.00605522,-0.29446310,0.100
 96517,0.05655591,0.00000073,0.00000025,-0.00000031,-0.00000121,0.00000
 247,0.00000041,0.00000048,-0.00000067,0.00000134,-0.00000306,-0.000000
 49,0.00000098,0.00000075,-0.00000006,-0.00000103,-0.00000216,0.0000026
 7,-0.00000100,0.00000097,-0.00000028,0.00000095,-0.00000313,0.00000012
 ,0.00000198,0.00000103,-0.00000012,-0.00000088,-0.00000281,0.00000256,
 -0.00000189,0.00000117,-0.00000056,0.00000042,-0.00000208,-0.00000007,
 0.00000253,-0.00000023,-0.00000014,0.00000111,-0.00000242,-0.00000006,
 0.00000388,-0.00000100,-0.00000108,0.00000119,-0.00000260,0.00000002,0
 .00000504,0.00000296,0.00000739,0.00000475,-0.00000238,-0.00000123,0.0
 0000658,-0.00001099,-0.00002568,-0.00001021,0.00001182,-0.00000050,0.0
 0001601,0.00001938,0.00007527,-0.00003927,0.00023241,-0.00023579,-0.00
 001726,-0.00024103,-0.00261932,-0.00130487,-0.00587218,0.00398572,-0.0
 0032727,0.30898535,0.00000508,-0.00000222,0.00000014,-0.00000369,0.000
 00691,0.00000376,0.00000304,-0.00000505,-0.00000233,-0.00000823,-0.000
 00429,0.00000043,0.00000668,0.00000257,-0.00000063,-0.00000332,0.00000
 988,-0.00000270,0.00000384,-0.00000782,0.00000200,-0.00000975,-0.00000
 340,0.00000704,0.00000890,0.00000176,-0.00000646,-0.00000717,0.0000091
 6,-0.00000865,0.00000831,-0.00000856,0.00000670,-0.00001125,-0.0000019
 0,0.00000920,0.00001045,-0.00000165,-0.00000819,-0.00000697,0.00000904
 ,0.00001681,0.00001083,-0.00000449,-0.00001182,-0.00003561,-0.00005008
 ,-0.00000107,0.00002224,0.00000372,-0.00001376,0.00009168,0.00021193,0
 .00013036,0.00004918,-0.00006617,-0.00007201,-0.00047309,-0.00114995,-
 0.00019056,0.00073644,0.00006381,-0.00046065,0.00397542,0.00731702,0.0
 0598187,0.01579131,-0.00145958,-0.00439563,0.09940603,-0.07310857,-0.0
 1198791,-0.00000047,-0.00000025,0.00000024,0.00000087,-0.00000179,-0.0
 0000025,-0.00000042,0.00000041,-0.00000080,0.00000204,0.00000033,-0.00
 000054,-0.00000047,0.00000006,0.00000086,0.00000159,-0.00000184,0.0000
 0080,-0.00000067,0.00000033,-0.00000041,0.00000231,0.00000008,-0.00000
 119,-0.00000063,0.00000043,0.00000077,0.00000208,-0.00000160,0.0000013
 7,-0.00000078,0.00000061,-0.00000019,0.00000180,0.00000043,-0.00000167
 ,0.00000074,0.00000146,-0.00000024,0.00000223,0.00000059,-0.00000262,-
 0.00000038,-0.00000135,-0.00000174,0.00000324,0.00000157,-0.00000316,0
 .00000801,0.00001681,0.00000536,0.00000330,0.00000126,-0.00000524,-0.0
 0002621,-0.00005333,-0.00002132,0.00000769,0.00002272,-0.00000426,0.00
 002054,0.00010681,0.00007130,-0.00006230,-0.00017857,-0.00018476,-0.00
 273326,-0.00470076,-0.00232279,-0.00564135,0.00424818,0.00176956,-0.11
 116106,0.06877516,-0.00000385,0.00000184,-0.00000008,0.00000264,-0.000
 00518,-0.00000286,-0.00000221,0.00000360,0.00000177,0.00000612,0.00000
 368,-0.00000024,-0.00000470,-0.00000159,-0.00000016,0.00000161,-0.0000
 0782,0.00000224,-0.00000223,0.00000508,-0.00000096,0.00000636,0.000003
 89,-0.00000613,-0.00000532,-0.00000151,0.00000281,0.00000271,-0.000006
 59,0.00000859,-0.00000364,0.00000383,-0.00000287,0.00000285,0.00000215
 ,-0.00001157,-0.00000281,-0.00000312,0.00001162,0.00000237,0.00001023,
 -0.00001452,-0.00000103,-0.00000845,0.00001748,-0.00001461,-0.00000659
 ,-0.00003417,0.00000178,-0.00001141,0.00003467,0.00002012,0.00012664,-
 0.00002689,-0.00005522,-0.00004087,0.00009227,-0.00033056,-0.00022350,
 -0.00051715,-0.00089038,0.00014383,0.00090087,0.00071402,0.00513485,-0
 .00184425,-0.02194870,0.00878868,0.00798922,0.06039434,-0.01379558,-0.
 06719015,0.00000037,0.00000011,-0.00000022,-0.00000065,0.00000125,0.00
 000019,0.00000026,-0.00000035,0.00000067,-0.00000171,-0.00000025,0.000
 00046,0.00000045,-0.00000016,-0.00000053,-0.00000120,0.00000142,-0.000
 00045,0.00000057,-0.00000021,0.00000049,-0.00000200,0.00000007,0.00000
 107,0.00000079,-0.00000019,-0.00000026,-0.00000169,0.00000153,-0.00000
 087,0.00000076,-0.00000044,0.00000016,-0.00000146,0.00000011,0.0000015
 9,0.00000002,0.,0.00000067,-0.00000196,0.00000016,0.00000259,-0.000000
 50,-0.00000095,0.00000067,-0.00000289,0.00000056,0.00000375,0.00000322
 ,0.00000608,0.00000406,-0.00000457,0.00000001,0.00000595,-0.00000888,-
 0.00002196,-0.00001003,-0.00000413,0.00000521,0.00001655,0.00009556,0.
 00000781,0.00001545,-0.00044369,0.00001605,0.00019158,-0.00102519,-0.0
 0245422,0.00029601,0.02336376,-0.00938384,-0.00166381,-0.05985400,0.01
 170624,0.06172375,-0.27419308,0.11906290,0.02372516,-0.01989769,0.0155
 6041,0.00277429,-0.00129945,-0.00395700,-0.00008505,0.00022839,-0.0004
 4229,0.00020940,-0.00002304,0.00007726,0.00001442,-0.00003769,-0.00003
 139,0.00003936,0.00006743,0.00005429,-0.00004408,-0.00002496,0.0000292
 5,-0.00003009,0.00001380,-0.00003033,0.00004434,-0.00001398,-0.0000017
 8,0.00002808,0.00001457,0.00000553,-0.00004591,-0.00000924,-0.00000496
 ,0.00001892,0.00001253,0.00000880,-0.00002551,-0.00000886,-0.00000331,
 0.00001907,0.00001026,0.00000383,-0.00002372,-0.00000890,-0.00000264,0
 .00001666,0.00001039,0.00000353,-0.00002034,-0.00000892,-0.00000184,0.
 00001486,0.00001021,0.00000246,-0.00001802,-0.00000916,-0.00000116,0.0
 0001342,0.00001036,0.00000160,-0.00001594,-0.00001066,-0.00000002,0.00
 001236,0.00001246,-0.00000041,-0.00001343,-0.00001279,0.00000495,0.000
 00257,0.00373365,-0.00279589,-0.00060093,0.00098485,-0.00008354,-0.000
 13028,-0.00111504,0.00049637,-0.00009861,0.00011431,0.00007902,-0.0000
 6278,-0.00004578,0.00004725,0.00000724,0.00001525,0.00000756,-0.000059
 19,-0.00001699,-0.00000016,0.00000756,0.00000129,-0.00000577,0.0000041
 4,-0.00000884,0.00000779,-0.00000487,0.00000388,0.00000189,-0.00000242
 ,-0.00000708,0.00000054,0.00000641,-0.00000108,-0.00000229,0.00000201,
 -0.00000381,-0.00000071,0.00000526,-0.00000040,-0.00000001,0.00000179,
 -0.00000294,-0.00000040,0.00000442,-0.00000045,-0.00000026,0.00000118,
 -0.00000243,-0.00000037,0.00000376,-0.00000033,-0.00000016,0.00000086,
 -0.00000204,-0.00000034,0.00000324,-0.00000022,-0.00000012,0.00000059,
 -0.00000173,-0.00000032,0.00000281,-0.00000014,-0.00000005,0.00000031,
 -0.00000122,-0.00000041,0.00000246,0.00000047,-0.00000020,-0.00000003,
 -0.00000173,0.00000118,-0.00000087,0.29152658,0.12328902,-0.12424225,-
 0.01776838,-0.01677384,0.01030984,0.00078765,-0.00217683,-0.00043944,-
 0.00212725,-0.00028611,-0.00071846,0.00025610,-0.00011275,0.00032091,0
 .00021595,0.00013493,0.00003213,-0.00003135,-0.00002776,0.00005900,-0.
 00006121,0.00000612,-0.00002909,0.00001591,-0.00001669,-0.00000082,0.0
 0002326,0.00001062,0.00000411,-0.00000717,-0.00000724,0.00000655,-0.00
 001392,0.00000345,-0.00000651,0.00001013,-0.00000263,0.00000597,-0.000
 00829,0.00000154,-0.00000335,0.00000694,-0.00000124,0.00000289,-0.0000
 0626,0.00000028,-0.00000206,0.00000479,0.,0.00000190,-0.00000453,-0.00
 000043,-0.00000120,0.00000349,0.00000065,0.00000110,-0.00000349,-0.000
 00090,-0.00000066,0.00000265,0.00000108,0.00000060,-0.00000274,-0.0000
 0136,-0.00000022,0.00000210,0.00000160,0.00000009,-0.00000209,-0.00000
 180,0.00000063,0.00000048,0.02454263,-0.00911522,-0.00238268,0.0000560
 2,0.00119141,0.00155907,-0.00051115,0.00019055,0.00023045,-0.00001308,
 0.00041179,-0.00033432,-0.00002307,0.00000676,-0.00001379,-0.00000069,
 -0.00000932,-0.00001902,0.00000513,0.00000033,0.00000242,0.00000049,0.
 00000105,-0.00000392,-0.00000269,0.00000053,-0.00000134,0.00000047,-0.
 00000098,0.00000101,-0.00000191,0.00000036,0.00000138,-0.00000038,-0.0
 0000067,-0.00000015,-0.00000089,-0.00000012,0.00000102,-0.00000004,0.0
 0000002,0.00000013,-0.00000062,-0.00000006,0.00000080,-0.00000006,-0.0
 0000005,0.00000010,-0.00000047,-0.00000005,0.00000064,-0.00000004,-0.0
 0000002,0.00000009,-0.00000036,-0.00000004,0.00000053,-0.00000003,-0.0
 0000001,0.00000007,-0.00000029,-0.00000004,0.00000044,-0.00000002,0.,0
 .00000005,-0.00000019,-0.00000005,0.00000038,0.00000005,-0.00000002,0.
 ,-0.00000023,0.00000018,-0.00000014,-0.12808825,0.12202200,0.02518677,
 -0.01774003,-0.03382754,-0.00455047,0.00225489,0.00429624,0.00062364,-
 0.00402903,0.01059720,0.00078383,0.00062173,-0.00042374,0.00013170,-0.
 00001169,-0.00041284,0.00005021,-0.00013666,0.00008537,-0.00010078,-0.
 00005246,-0.00002391,0.00004736,-0.00003873,0.00003385,-0.00003611,0.0
 0005756,-0.00003790,0.00003316,-0.00000472,-0.00003917,-0.00002847,0.0
 0000148,0.00005160,0.00001888,0.00000177,-0.00002080,-0.00002092,-0.00
 000860,0.00002976,0.00001488,0.00000112,-0.00002087,-0.00001499,-0.000
 00262,0.00002709,0.00001262,0.00000138,-0.00001803,-0.00001361,-0.0000
 0314,0.00002279,0.00001133,0.00000113,-0.00001606,-0.00001242,-0.00000
 227,0.00002004,0.00001084,0.00000077,-0.00001452,-0.00001199,-0.000001
 56,0.00001764,0.00001204,-0.00000025,-0.00001340,-0.00001391,0.0000005
 1,0.00001483,0.00001405,-0.00000556,-0.00000273,0.00438745,-0.00178325
 ,0.00215507,-0.00005674,0.00091676,-0.00733128,-0.00102424,0.00034966,
 -0.00010037,0.00016087,-0.00015211,-0.00006259,-0.00002227,0.00004444,
 0.00002637,0.00006435,0.00007325,0.00001293,0.00001782,-0.00000173,-0.
 00000893,-0.00000430,-0.00001275,-0.00000611,0.00000730,-0.00000660,0.
 00000494,-0.00000421,-0.00000195,-0.00000128,0.00000873,-0.00000059,-0
 .00000788,0.00000189,0.00000289,-0.00000184,0.00000472,0.00000084,-0.0
 0000640,0.00000055,-0.00000004,-0.00000216,0.00000360,0.00000050,-0.00
 000525,0.00000060,0.00000037,-0.00000144,0.00000290,0.00000046,-0.0000
 0438,0.00000043,0.00000025,-0.00000106,0.00000240,0.00000042,-0.000003
 72,0.00000030,0.00000020,-0.00000074,0.00000200,0.00000038,-0.00000319
 ,0.00000021,0.00000010,-0.00000042,0.00000140,0.00000049,-0.00000278,-
 0.00000046,0.00000025,-0.00000002,0.00000192,-0.00000128,0.00000098,-0
 .02570484,0.01966402,0.02502670\\-0.00000036,-0.00000091,-0.00000011,-
 0.00000012,0.00000070,0.00000079,0.00000166,0.00000108,-0.00000024,-0.
 00000136,-0.00000088,-0.00000103,0.00000101,-0.00000125,0.00000043,-0.
 00000016,0.00000030,-0.00000173,-0.00000047,-0.00000001,0.00000150,-0.
 00000083,0.00000041,-0.00000106,-0.00000064,0.00000031,0.00000015,0.00
 000030,0.00000056,-0.00000108,-0.00000096,-0.00000022,0.00000074,-0.00
 000012,0.00000022,0.00000013,0.00000023,0.00000047,-0.00000011,0.00000
 003,0.00000014,0.00000012,0.00000044,-0.00000013,0.00000025,-0.0000002
 7,0.00000028,-0.00000021,0.00000081,-0.00000030,0.00000032,-0.00000038
 ,0.00000035,-0.00000036,0.00000043,-0.00000020,0.00000009,-0.00000032,
 0.00000019,-0.00000032,0.00000006,-0.00000003,-0.00000008,-0.00000031,
 0.00000016,-0.00000041,-0.00000028,0.00000005,-0.00000014,0.00000003,-
 0.00000031,0.00000013,-0.00000008,0.00000015,-0.00000044,-0.00000072,-
 0.00000007,-0.00000004,0.00000054,-0.00000063,0.00000092,0.00000024,0.
 00000048,0.00000011,-0.00000034,0.00000072,0.00000115,-0.00000046,-0.0
 0000052,0.00000013,0.00000021,0.00000042,0.00000056,0.00000042,-0.0000
 0082,0.00000030,0.00000069,-0.00000033,-0.00000003,0.00000071,0.000000
 57,-0.00000001,0.00000064,0.00000009,-0.00000006,0.00000019,-0.0000000
 4,0.00000019,-0.00000017,0.00000020,0.00000022,0.00000008,-0.00000018,
 -0.00000021,-0.00000016,0.00000018,0.00000010,0.00000026,-0.00000029,-
 0.00000021,-0.00000030,0.00000017,0.00000018,0.00000036,-0.00000036,-0
 .00000026,-0.00000031,0.00000010,0.00000028,0.00000030,-0.00000032,-0.
 00000032,-0.00000025,0.00000001,0.00000034,0.00000019,-0.00000026,-0.0
 0000037,-0.00000019,0.00000007,0.00000005,-0.00000007,-0.00000020,-0.0
 0000033,0.,-0.00000016,-0.00000009,-0.00000021,0.00000003,0.00000010\\
 \@


 THE ... SCIENTISTS WERE WRONG ... THE MOST PERSISTENT PRINCIPLES 
 OF THE UNIVERSE WERE ACCIDENT AND ERROR.

                          -- FRANK HERBERT IN DUNE
 Job cpu time:       0 days  1 hours 35 minutes 35.1 seconds.
 Elapsed time:       0 days  1 hours 35 minutes 35.1 seconds.
 File lengths (MBytes):  RWF=   1208 Int=      0 D2E=      0 Chk=     21 Scr=      1
 Normal termination of Gaussian 16 at Sat Oct 28 18:00:59 2023.
