 Entering Gaussian System, Link 0=g16
 Input=./com/13.com
 Output=./log/13.log
 Initial command:
 /home/shohei/gaussian/g16/l1.exe "/home/shohei/gaussian/scratch/Gau-13679.inp" -scrdir="/home/shohei/gaussian/scratch/"
 Entering Link 1 = /home/shohei/gaussian/g16/l1.exe PID=     13681.
  
 Copyright (c) 1988-2017, Gaussian, Inc.  All Rights Reserved.
  
 This is part of the Gaussian(R) 16 program.  It is based on
 the Gaussian(R) 09 system (copyright 2009, Gaussian, Inc.),
 the Gaussian(R) 03 system (copyright 2003, Gaussian, Inc.),
 the Gaussian(R) 98 system (copyright 1998, Gaussian, Inc.),
 the Gaussian(R) 94 system (copyright 1995, Gaussian, Inc.),
 the Gaussian 92(TM) system (copyright 1992, Gaussian, Inc.),
 the Gaussian 90(TM) system (copyright 1990, Gaussian, Inc.),
 the Gaussian 88(TM) system (copyright 1988, Gaussian, Inc.),
 the Gaussian 86(TM) system (copyright 1986, Carnegie Mellon
 University), and the Gaussian 82(TM) system (copyright 1983,
 Carnegie Mellon University). Gaussian is a federally registered
 trademark of Gaussian, Inc.
  
 This software contains proprietary and confidential information,
 including trade secrets, belonging to Gaussian, Inc.
  
 This software is provided under written license and may be
 used, copied, transmitted, or stored only in accord with that
 written license.
  
 The following legend is applicable only to US Government
 contracts under FAR:
  
                    RESTRICTED RIGHTS LEGEND
  
 Use, reproduction and disclosure by the US Government is
 subject to restrictions as set forth in subparagraphs (a)
 and (c) of the Commercial Computer Software - Restricted
 Rights clause in FAR 52.227-19.
  
 Gaussian, Inc.
 340 Quinnipiac St., Bldg. 40, Wallingford CT 06492
  
  
 ---------------------------------------------------------------
 Warning -- This program may not be used in any manner that
 competes with the business of Gaussian, Inc. or will provide
 assistance to any competitor of Gaussian, Inc.  The licensee
 of this program is prohibited from giving any competitor of
 Gaussian, Inc. access to this program.  By using this program,
 the user acknowledges that Gaussian, Inc. is engaged in the
 business of creating and licensing software in the field of
 computational chemistry and represents and warrants to the
 licensee that it is not a competitor of Gaussian, Inc. and that
 it will not use this program in any manner prohibited above.
 ---------------------------------------------------------------
  

 Cite this work as:
 Gaussian 16, Revision B.01,
 M. J. Frisch, G. W. Trucks, H. B. Schlegel, G. E. Scuseria, 
 M. A. Robb, J. R. Cheeseman, G. Scalmani, V. Barone, 
 G. A. Petersson, H. Nakatsuji, X. Li, M. Caricato, A. V. Marenich, 
 J. Bloino, B. G. Janesko, R. Gomperts, B. Mennucci, H. P. Hratchian, 
 J. V. Ortiz, A. F. Izmaylov, J. L. Sonnenberg, D. Williams-Young, 
 F. Ding, F. Lipparini, F. Egidi, J. Goings, B. Peng, A. Petrone, 
 T. Henderson, D. Ranasinghe, V. G. Zakrzewski, J. Gao, N. Rega, 
 G. Zheng, W. Liang, M. Hada, M. Ehara, K. Toyota, R. Fukuda, 
 J. Hasegawa, M. Ishida, T. Nakajima, Y. Honda, O. Kitao, H. Nakai, 
 T. Vreven, K. Throssell, J. A. Montgomery, Jr., J. E. Peralta, 
 F. Ogliaro, M. J. Bearpark, J. J. Heyd, E. N. Brothers, K. N. Kudin, 
 V. N. Staroverov, T. A. Keith, R. Kobayashi, J. Normand, 
 K. Raghavachari, A. P. Rendell, J. C. Burant, S. S. Iyengar, 
 J. Tomasi, M. Cossi, J. M. Millam, M. Klene, C. Adamo, R. Cammi, 
 J. W. Ochterski, R. L. Martin, K. Morokuma, O. Farkas, 
 J. B. Foresman, and D. J. Fox, Gaussian, Inc., Wallingford CT, 2016.
 
 ******************************************
 Gaussian 16:  EM64L-G16RevB.01 20-Dec-2017
                 9-Nov-2023 
 ******************************************
 %chk=checkpoint.chk
 %nprocshared=2
 Will use up to    2 processors via shared memory.
 ---------------------------
 # B3LYP/6-31G(d,p) OPT FREQ
 ---------------------------
 1/18=20,19=15,26=3,38=1/1,3;
 2/9=110,12=2,17=6,18=5,40=1/2;
 3/5=1,6=6,7=101,11=2,25=1,30=1,71=1,74=-5/1,2,3;
 4//1;
 5/5=2,38=5/2;
 6/7=2,8=2,9=2,10=2,28=1/1;
 7//1,2,3,16;
 1/18=20,19=15,26=3/3(2);
 2/9=110/2;
 99//99;
 2/9=110/2;
 3/5=1,6=6,7=101,11=2,25=1,30=1,71=1,74=-5/1,2,3;
 4/5=5,16=3,69=1/1;
 5/5=2,38=5/2;
 7//1,2,3,16;
 1/18=20,19=15,26=3/3(-5);
 2/9=110/2;
 6/7=2,8=2,9=2,10=2,19=2,28=1/1;
 99/9=1/99;
 ------
 13poly
 ------
 Symbolic Z-matrix:
 Charge =  0 Multiplicity = 1
 C                    -2.37139   1.1051    0.01896 
 C                    -1.15685   1.65766  -0.0228 
 C                     0.06284   0.82511   0.01889 
 C                     1.27932   1.38433  -0.0232 
 C                     2.50036   0.55287   0.01852 
 C                     3.71628   1.11346  -0.02339 
 C                     4.93848   0.28376   0.01846 
 C                     6.15344   0.84648  -0.02313 
 C                     7.37725   0.0192    0.01889 
 C                     8.59106   0.58449  -0.02229 
 C                     9.81656  -0.24022   0.01994 
 C                     11.02931   0.32744  -0.02084 
 C                     12.25612  -0.49525   0.02155 
 C                     13.46822   0.07387  -0.01902 
 C                     14.69554  -0.74802   0.02342 
 C                     15.90763  -0.17889  -0.01729 
 C                     17.13445  -1.00156   0.02501 
 C                     18.34722  -0.43396  -0.01624 
 C                     19.57262  -1.2588    0.02575 
 C                     20.78655  -0.69383  -0.01636 
 C                     22.01008  -1.52156   0.02523 
 C                     23.22528  -0.95947  -0.01782 
 C                     24.4471  -1.78982   0.0234 
 C                     25.66321  -1.22997  -0.02038 
 C                     26.88323  -2.06211   0.02065 
 C                     28.09761  -1.50937  -0.02308 
 H                    -3.25473   1.73471  -0.01281 
 H                    -2.49705   0.02835   0.08473 
 H                    -1.07286   2.73917  -0.08854 
 H                    -0.03346  -0.25631   0.08471 
 H                     1.37436   2.46588  -0.08898 
 H                     2.40584  -0.52869   0.08427 
 H                     3.81014   2.1951   -0.08906 
 H                     4.84568  -0.79796   0.08408 
 H                     6.24535   1.9283   -0.08864 
 H                     7.28661  -1.06271   0.08433 
 H                     8.68075   1.6665   -0.08761 
 H                     9.72803  -1.32232   0.08519 
 H                     11.11709   1.40961  -0.086 
 H                     12.16905  -1.57747   0.08668 
 H                     13.55499   1.15612  -0.08414 
 H                     14.60878  -1.83028   0.08858 
 H                     15.99467   0.90332  -0.08254 
 H                     17.04666  -2.08372   0.0904 
 H                     18.4358   0.64812  -0.08181 
 H                     19.48275  -2.34076   0.09154 
 H                     20.87747   0.38802  -0.08237 
 H                     21.91776  -2.60329   0.0915 
 H                     23.31858   0.12215  -0.0843 
 H                     24.35288  -2.87139   0.09009 
 H                     25.75894  -0.14856  -0.0872 
 H                     26.79958  -3.14359   0.08746 
 H                     28.22302  -0.43268  -0.09001 
 H                     28.98106  -2.13886   0.00821 
 

 GradGradGradGradGradGradGradGradGradGradGradGradGradGradGradGradGradGrad
 Berny optimization.
 Initialization pass.
                           ----------------------------
                           !    Initial Parameters    !
                           ! (Angstroms and Degrees)  !
 --------------------------                            --------------------------
 ! Name  Definition              Value          Derivative Info.                !
 --------------------------------------------------------------------------------
 ! R1    R(1,2)                  1.335          estimate D2E/DX2                !
 ! R2    R(1,27)                 1.0852         estimate D2E/DX2                !
 ! R3    R(1,28)                 1.086          estimate D2E/DX2                !
 ! R4    R(2,3)                  1.4773         estimate D2E/DX2                !
 ! R5    R(2,29)                 1.0868         estimate D2E/DX2                !
 ! R6    R(3,4)                  1.3395         estimate D2E/DX2                !
 ! R7    R(3,30)                 1.0877         estimate D2E/DX2                !
 ! R8    R(4,5)                  1.4778         estimate D2E/DX2                !
 ! R9    R(4,31)                 1.0877         estimate D2E/DX2                !
 ! R10   R(5,6)                  1.3396         estimate D2E/DX2                !
 ! R11   R(5,32)                 1.0877         estimate D2E/DX2                !
 ! R12   R(6,7)                  1.4778         estimate D2E/DX2                !
 ! R13   R(6,33)                 1.0877         estimate D2E/DX2                !
 ! R14   R(7,8)                  1.3396         estimate D2E/DX2                !
 ! R15   R(7,34)                 1.0877         estimate D2E/DX2                !
 ! R16   R(8,9)                  1.4778         estimate D2E/DX2                !
 ! R17   R(8,35)                 1.0877         estimate D2E/DX2                !
 ! R18   R(9,10)                 1.3396         estimate D2E/DX2                !
 ! R19   R(9,36)                 1.0877         estimate D2E/DX2                !
 ! R20   R(10,11)                1.4778         estimate D2E/DX2                !
 ! R21   R(10,37)                1.0877         estimate D2E/DX2                !
 ! R22   R(11,12)                1.3397         estimate D2E/DX2                !
 ! R23   R(11,38)                1.0877         estimate D2E/DX2                !
 ! R24   R(12,13)                1.4777         estimate D2E/DX2                !
 ! R25   R(12,39)                1.0877         estimate D2E/DX2                !
 ! R26   R(13,14)                1.3397         estimate D2E/DX2                !
 ! R27   R(13,40)                1.0877         estimate D2E/DX2                !
 ! R28   R(14,15)                1.4777         estimate D2E/DX2                !
 ! R29   R(14,41)                1.0877         estimate D2E/DX2                !
 ! R30   R(15,16)                1.3397         estimate D2E/DX2                !
 ! R31   R(15,42)                1.0877         estimate D2E/DX2                !
 ! R32   R(16,17)                1.4777         estimate D2E/DX2                !
 ! R33   R(16,43)                1.0877         estimate D2E/DX2                !
 ! R34   R(17,18)                1.3397         estimate D2E/DX2                !
 ! R35   R(17,44)                1.0877         estimate D2E/DX2                !
 ! R36   R(18,19)                1.4778         estimate D2E/DX2                !
 ! R37   R(18,45)                1.0877         estimate D2E/DX2                !
 ! R38   R(19,20)                1.3396         estimate D2E/DX2                !
 ! R39   R(19,46)                1.0877         estimate D2E/DX2                !
 ! R40   R(20,21)                1.4778         estimate D2E/DX2                !
 ! R41   R(20,47)                1.0877         estimate D2E/DX2                !
 ! R42   R(21,22)                1.3396         estimate D2E/DX2                !
 ! R43   R(21,48)                1.0877         estimate D2E/DX2                !
 ! R44   R(22,23)                1.4778         estimate D2E/DX2                !
 ! R45   R(22,49)                1.0877         estimate D2E/DX2                !
 ! R46   R(23,24)                1.3395         estimate D2E/DX2                !
 ! R47   R(23,50)                1.0877         estimate D2E/DX2                !
 ! R48   R(24,25)                1.4774         estimate D2E/DX2                !
 ! R49   R(24,51)                1.0877         estimate D2E/DX2                !
 ! R50   R(25,26)                1.335          estimate D2E/DX2                !
 ! R51   R(25,52)                1.0868         estimate D2E/DX2                !
 ! R52   R(26,53)                1.086          estimate D2E/DX2                !
 ! R53   R(26,54)                1.0852         estimate D2E/DX2                !
 ! A1    A(2,1,27)             119.9654         estimate D2E/DX2                !
 ! A2    A(2,1,28)             121.1663         estimate D2E/DX2                !
 ! A3    A(27,1,28)            118.8683         estimate D2E/DX2                !
 ! A4    A(1,2,3)              121.1293         estimate D2E/DX2                !
 ! A5    A(1,2,29)             118.9545         estimate D2E/DX2                !
 ! A6    A(3,2,29)             119.9162         estimate D2E/DX2                !
 ! A7    A(2,3,4)              120.9046         estimate D2E/DX2                !
 ! A8    A(2,3,30)             119.2692         estimate D2E/DX2                !
 ! A9    A(4,3,30)             119.8262         estimate D2E/DX2                !
 ! A10   A(3,4,5)              120.9692         estimate D2E/DX2                !
 ! A11   A(3,4,31)             119.7596         estimate D2E/DX2                !
 ! A12   A(5,4,31)             119.2713         estimate D2E/DX2                !
 ! A13   A(4,5,6)              120.906          estimate D2E/DX2                !
 ! A14   A(4,5,32)             119.2983         estimate D2E/DX2                !
 ! A15   A(6,5,32)             119.7957         estimate D2E/DX2                !
 ! A16   A(5,6,7)              120.9872         estimate D2E/DX2                !
 ! A17   A(5,6,33)             119.7606         estimate D2E/DX2                !
 ! A18   A(7,6,33)             119.2522         estimate D2E/DX2                !
 ! A19   A(6,7,8)              120.8881         estimate D2E/DX2                !
 ! A20   A(6,7,34)             119.3082         estimate D2E/DX2                !
 ! A21   A(8,7,34)             119.8037         estimate D2E/DX2                !
 ! A22   A(7,8,9)              121.0001         estimate D2E/DX2                !
 ! A23   A(7,8,35)             119.7562         estimate D2E/DX2                !
 ! A24   A(9,8,35)             119.2437         estimate D2E/DX2                !
 ! A25   A(8,9,10)             120.8811         estimate D2E/DX2                !
 ! A26   A(8,9,36)             119.3107         estimate D2E/DX2                !
 ! A27   A(10,9,36)            119.8082         estimate D2E/DX2                !
 ! A28   A(9,10,11)            120.9998         estimate D2E/DX2                !
 ! A29   A(9,10,37)            119.758          estimate D2E/DX2                !
 ! A30   A(11,10,37)           119.2422         estimate D2E/DX2                !
 ! A31   A(10,11,12)           120.89           estimate D2E/DX2                !
 ! A32   A(10,11,38)           119.3039         estimate D2E/DX2                !
 ! A33   A(12,11,38)           119.8061         estimate D2E/DX2                !
 ! A34   A(11,12,13)           120.9829         estimate D2E/DX2                !
 ! A35   A(11,12,39)           119.7669         estimate D2E/DX2                !
 ! A36   A(13,12,39)           119.2502         estimate D2E/DX2                !
 ! A37   A(12,13,14)           120.9152         estimate D2E/DX2                !
 ! A38   A(12,13,40)           119.2882         estimate D2E/DX2                !
 ! A39   A(14,13,40)           119.7966         estimate D2E/DX2                !
 ! A40   A(13,14,15)           120.9518         estimate D2E/DX2                !
 ! A41   A(13,14,41)           119.7813         estimate D2E/DX2                !
 ! A42   A(15,14,41)           119.267          estimate D2E/DX2                !
 ! A43   A(14,15,16)           120.9507         estimate D2E/DX2                !
 ! A44   A(14,15,42)           119.2675         estimate D2E/DX2                !
 ! A45   A(16,15,42)           119.7818         estimate D2E/DX2                !
 ! A46   A(15,16,17)           120.9152         estimate D2E/DX2                !
 ! A47   A(15,16,43)           119.7968         estimate D2E/DX2                !
 ! A48   A(17,16,43)           119.288          estimate D2E/DX2                !
 ! A49   A(16,17,18)           120.9854         estimate D2E/DX2                !
 ! A50   A(16,17,44)           119.2486         estimate D2E/DX2                !
 ! A51   A(18,17,44)           119.7661         estimate D2E/DX2                !
 ! A52   A(17,18,19)           120.8856         estimate D2E/DX2                !
 ! A53   A(17,18,45)           119.8081         estimate D2E/DX2                !
 ! A54   A(19,18,45)           119.3063         estimate D2E/DX2                !
 ! A55   A(18,19,20)           121.0066         estimate D2E/DX2                !
 ! A56   A(18,19,46)           119.2383         estimate D2E/DX2                !
 ! A57   A(20,19,46)           119.7551         estimate D2E/DX2                !
 ! A58   A(19,20,21)           120.8743         estimate D2E/DX2                !
 ! A59   A(19,20,47)           119.8109         estimate D2E/DX2                !
 ! A60   A(21,20,47)           119.3147         estimate D2E/DX2                !
 ! A61   A(20,21,22)           121.0065         estimate D2E/DX2                !
 ! A62   A(20,21,48)           119.2405         estimate D2E/DX2                !
 ! A63   A(22,21,48)           119.7531         estimate D2E/DX2                !
 ! A64   A(21,22,23)           120.8858         estimate D2E/DX2                !
 ! A65   A(21,22,49)           119.8047         estimate D2E/DX2                !
 ! A66   A(23,22,49)           119.3095         estimate D2E/DX2                !
 ! A67   A(22,23,24)           120.9873         estimate D2E/DX2                !
 ! A68   A(22,23,50)           119.2611         estimate D2E/DX2                !
 ! A69   A(24,23,50)           119.7516         estimate D2E/DX2                !
 ! A70   A(23,24,25)           120.8911         estimate D2E/DX2                !
 ! A71   A(23,24,51)           119.8316         estimate D2E/DX2                !
 ! A72   A(25,24,51)           119.2773         estimate D2E/DX2                !
 ! A73   A(24,25,26)           121.1369         estimate D2E/DX2                !
 ! A74   A(24,25,52)           119.9123         estimate D2E/DX2                !
 ! A75   A(26,25,52)           118.9508         estimate D2E/DX2                !
 ! A76   A(25,26,53)           121.1678         estimate D2E/DX2                !
 ! A77   A(25,26,54)           119.9618         estimate D2E/DX2                !
 ! A78   A(53,26,54)           118.8703         estimate D2E/DX2                !
 ! D1    D(27,1,2,3)           179.9989         estimate D2E/DX2                !
 ! D2    D(27,1,2,29)            0.0003         estimate D2E/DX2                !
 ! D3    D(28,1,2,3)            -0.0005         estimate D2E/DX2                !
 ! D4    D(28,1,2,29)         -179.999          estimate D2E/DX2                !
 ! D5    D(1,2,3,4)           -179.9955         estimate D2E/DX2                !
 ! D6    D(1,2,3,30)             0.0016         estimate D2E/DX2                !
 ! D7    D(29,2,3,4)             0.0031         estimate D2E/DX2                !
 ! D8    D(29,2,3,30)         -179.9998         estimate D2E/DX2                !
 ! D9    D(2,3,4,5)            179.9949         estimate D2E/DX2                !
 ! D10   D(2,3,4,31)            -0.0004         estimate D2E/DX2                !
 ! D11   D(30,3,4,5)            -0.0022         estimate D2E/DX2                !
 ! D12   D(30,3,4,31)         -179.9975         estimate D2E/DX2                !
 ! D13   D(3,4,5,6)           -179.9872         estimate D2E/DX2                !
 ! D14   D(3,4,5,32)             0.0061         estimate D2E/DX2                !
 ! D15   D(31,4,5,6)             0.0081         estimate D2E/DX2                !
 ! D16   D(31,4,5,32)         -179.9986         estimate D2E/DX2                !
 ! D17   D(4,5,6,7)            179.9895         estimate D2E/DX2                !
 ! D18   D(4,5,6,33)            -0.0019         estimate D2E/DX2                !
 ! D19   D(32,5,6,7)            -0.0038         estimate D2E/DX2                !
 ! D20   D(32,5,6,33)         -179.9952         estimate D2E/DX2                !
 ! D21   D(5,6,7,8)           -179.9781         estimate D2E/DX2                !
 ! D22   D(5,6,7,34)             0.0116         estimate D2E/DX2                !
 ! D23   D(33,6,7,8)             0.0134         estimate D2E/DX2                !
 ! D24   D(33,6,7,34)         -179.9969         estimate D2E/DX2                !
 ! D25   D(6,7,8,9)            179.9848         estimate D2E/DX2                !
 ! D26   D(6,7,8,35)            -0.0037         estimate D2E/DX2                !
 ! D27   D(34,7,8,9)            -0.0048         estimate D2E/DX2                !
 ! D28   D(34,7,8,35)         -179.9933         estimate D2E/DX2                !
 ! D29   D(7,8,9,10)          -179.9721         estimate D2E/DX2                !
 ! D30   D(7,8,9,36)             0.0158         estimate D2E/DX2                !
 ! D31   D(35,8,9,10)            0.0164         estimate D2E/DX2                !
 ! D32   D(35,8,9,36)         -179.9957         estimate D2E/DX2                !
 ! D33   D(8,9,10,11)          179.9832         estimate D2E/DX2                !
 ! D34   D(8,9,10,37)           -0.0049         estimate D2E/DX2                !
 ! D35   D(36,9,10,11)          -0.0047         estimate D2E/DX2                !
 ! D36   D(36,9,10,37)        -179.9928         estimate D2E/DX2                !
 ! D37   D(9,10,11,12)        -179.9737         estimate D2E/DX2                !
 ! D38   D(9,10,11,38)           0.016          estimate D2E/DX2                !
 ! D39   D(37,10,11,12)          0.0145         estimate D2E/DX2                !
 ! D40   D(37,10,11,38)       -179.9958         estimate D2E/DX2                !
 ! D41   D(10,11,12,13)        179.9867         estimate D2E/DX2                !
 ! D42   D(10,11,12,39)         -0.0051         estimate D2E/DX2                !
 ! D43   D(38,11,12,13)         -0.0029         estimate D2E/DX2                !
 ! D44   D(38,11,12,39)       -179.9947         estimate D2E/DX2                !
 ! D45   D(11,12,13,14)       -179.9855         estimate D2E/DX2                !
 ! D46   D(11,12,13,40)          0.0101         estimate D2E/DX2                !
 ! D47   D(39,12,13,14)          0.0063         estimate D2E/DX2                !
 ! D48   D(39,12,13,40)       -179.9981         estimate D2E/DX2                !
 ! D49   D(12,13,14,15)        179.9958         estimate D2E/DX2                !
 ! D50   D(12,13,14,41)         -0.0036         estimate D2E/DX2                !
 ! D51   D(40,13,14,15)          0.0002         estimate D2E/DX2                !
 ! D52   D(40,13,14,41)       -179.9991         estimate D2E/DX2                !
 ! D53   D(13,14,15,16)        179.9934         estimate D2E/DX2                !
 ! D54   D(13,14,15,42)         -0.0021         estimate D2E/DX2                !
 ! D55   D(41,14,15,16)         -0.0073         estimate D2E/DX2                !
 ! D56   D(41,14,15,42)        179.9972         estimate D2E/DX2                !
 ! D57   D(14,15,16,17)       -179.9917         estimate D2E/DX2                !
 ! D58   D(14,15,16,43)         -0.0006         estimate D2E/DX2                !
 ! D59   D(42,15,16,17)          0.0038         estimate D2E/DX2                !
 ! D60   D(42,15,16,43)        179.9949         estimate D2E/DX2                !
 ! D61   D(15,16,17,18)        179.9687         estimate D2E/DX2                !
 ! D62   D(15,16,17,44)         -0.0175         estimate D2E/DX2                !
 ! D63   D(43,16,17,18)         -0.0224         estimate D2E/DX2                !
 ! D64   D(43,16,17,44)        179.9914         estimate D2E/DX2                !
 ! D65   D(16,17,18,19)       -179.9797         estimate D2E/DX2                !
 ! D66   D(16,17,18,45)          0.0031         estimate D2E/DX2                !
 ! D67   D(44,17,18,19)          0.0064         estimate D2E/DX2                !
 ! D68   D(44,17,18,45)        179.9892         estimate D2E/DX2                !
 ! D69   D(17,18,19,20)        179.9497         estimate D2E/DX2                !
 ! D70   D(17,18,19,46)         -0.0305         estimate D2E/DX2                !
 ! D71   D(45,18,19,20)         -0.0332         estimate D2E/DX2                !
 ! D72   D(45,18,19,46)        179.9866         estimate D2E/DX2                !
 ! D73   D(18,19,20,21)       -179.9734         estimate D2E/DX2                !
 ! D74   D(18,19,20,47)          0.0061         estimate D2E/DX2                !
 ! D75   D(46,19,20,21)          0.0068         estimate D2E/DX2                !
 ! D76   D(46,19,20,47)        179.9862         estimate D2E/DX2                !
 ! D77   D(19,20,21,22)        179.945          estimate D2E/DX2                !
 ! D78   D(19,20,21,48)         -0.0354         estimate D2E/DX2                !
 ! D79   D(47,20,21,22)         -0.0345         estimate D2E/DX2                !
 ! D80   D(47,20,21,48)        179.9851         estimate D2E/DX2                !
 ! D81   D(20,21,22,23)       -179.9756         estimate D2E/DX2                !
 ! D82   D(20,21,22,49)          0.0069         estimate D2E/DX2                !
 ! D83   D(48,21,22,23)          0.0047         estimate D2E/DX2                !
 ! D84   D(48,21,22,49)        179.9871         estimate D2E/DX2                !
 ! D85   D(21,22,23,24)        179.9573         estimate D2E/DX2                !
 ! D86   D(21,22,23,50)         -0.0293         estimate D2E/DX2                !
 ! D87   D(49,22,23,24)         -0.0253         estimate D2E/DX2                !
 ! D88   D(49,22,23,50)        179.9881         estimate D2E/DX2                !
 ! D89   D(22,23,24,25)       -179.9854         estimate D2E/DX2                !
 ! D90   D(22,23,24,51)          0.005          estimate D2E/DX2                !
 ! D91   D(50,23,24,25)          0.0012         estimate D2E/DX2                !
 ! D92   D(50,23,24,51)        179.9915         estimate D2E/DX2                !
 ! D93   D(23,24,25,26)        179.9802         estimate D2E/DX2                !
 ! D94   D(23,24,25,52)         -0.0149         estimate D2E/DX2                !
 ! D95   D(51,24,25,26)         -0.0103         estimate D2E/DX2                !
 ! D96   D(51,24,25,52)        179.9946         estimate D2E/DX2                !
 ! D97   D(24,25,26,53)          0.0011         estimate D2E/DX2                !
 ! D98   D(24,25,26,54)       -179.9962         estimate D2E/DX2                !
 ! D99   D(52,25,26,53)        179.9962         estimate D2E/DX2                !
 ! D100  D(52,25,26,54)         -0.0011         estimate D2E/DX2                !
 --------------------------------------------------------------------------------
 Trust Radius=3.00D-01 FncErr=1.00D-07 GrdErr=1.00D-06 EigMax=2.50D+02 EigMin=1.00D-04
 Number of steps in this run=    241 maximum allowed number of steps=    324.
 GradGradGradGradGradGradGradGradGradGradGradGradGradGradGradGradGradGrad

 Stoichiometry    C26H28
 Framework group  C1[X(C26H28)]
 Deg. of freedom   156
 Full point group                 C1      NOp   1
 Largest Abelian subgroup         C1      NOp   1
 Largest concise Abelian subgroup C1      NOp   1
                         Standard orientation:                         
 ---------------------------------------------------------------------
 Center     Atomic      Atomic             Coordinates (Angstroms)
 Number     Number       Type             X           Y           Z
 ---------------------------------------------------------------------
      1          6           0      -15.287934    0.277048   -0.001787
      2          6           0      -14.137260   -0.399802   -0.001054
      3          6           0      -12.837796    0.302985   -0.000122
      4          6           0      -11.685879   -0.380691    0.000521
      5          6           0      -10.385179    0.320871    0.001342
      6          6           0       -9.233970   -0.364102    0.001728
      7          6           0       -7.932295    0.335606    0.002316
      8          6           0       -6.782259   -0.351366    0.002262
      9          6           0       -5.479244    0.345783    0.002513
     10          6           0       -4.330613   -0.343590    0.001899
     11          6           0       -3.026187    0.350840    0.001777
     12          6           0       -1.878854   -0.340750    0.000635
     13          6           0       -0.573331    0.351549    0.000218
     14          6           0        0.573201   -0.341408   -0.001215
     15          6           0        1.879151    0.350049   -0.001728
     16          6           0        3.025673   -0.342931   -0.003027
     17          6           0        4.331202    0.349340   -0.003355
     18          6           0        5.478555   -0.342225   -0.004026
     19          6           0        6.782908    0.352334   -0.003904
     20          6           0        7.931688   -0.336788   -0.003567
     21          6           0        9.234477    0.360804   -0.002856
     22          6           0       10.384813   -0.325649   -0.001415
     23          6           0       11.686171    0.374706   -0.000167
     24          6           0       12.837658   -0.309671    0.002131
     25          6           0       14.137405    0.392636    0.003699
     26          6           0       15.287899   -0.284489    0.006386
     27          1           0      -16.231815   -0.258492   -0.002484
     28          1           0      -15.301228    1.363011   -0.001711
     29          1           0      -14.165904   -1.486180   -0.001174
     30          1           0      -12.821406    1.390553   -0.000006
     31          1           0      -11.703534   -1.468257    0.000364
     32          1           0      -10.367012    1.408389    0.001523
     33          1           0       -9.252804   -1.451631    0.001467
     34          1           0       -7.912398    1.423091    0.002627
     35          1           0       -6.803057   -1.438854    0.001840
     36          1           0       -5.457173    1.433227    0.003006
     37          1           0       -4.353636   -1.431029    0.001288
     38          1           0       -3.001991    1.438241    0.002458
     39          1           0       -1.903793   -1.428141   -0.000132
     40          1           0       -0.547670    1.438920    0.001016
     41          1           0        0.547248   -1.428771   -0.002027
     42          1           0        1.905114    1.437416   -0.000961
     43          1           0        2.999994   -1.430299   -0.003709
     44          1           0        4.356131    1.436734   -0.002815
     45          1           0        5.454424   -1.429629   -0.004389
     46          1           0        6.805749    1.439776   -0.003764
     47          1           0        7.909907   -1.424243   -0.003479
     48          1           0        9.254849    1.448298   -0.003191
     49          1           0       10.365419   -1.413150   -0.000866
     50          1           0       11.704647    1.462255   -0.000913
     51          1           0       12.820702   -1.397229    0.003020
     52          1           0       14.166388    1.479011    0.002744
     53          1           0       15.300955   -1.370444    0.007478
     54          1           0       16.231884    0.250881    0.007561
 ---------------------------------------------------------------------
 Rotational constants (GHZ):           5.5645477           0.0173558           0.0173018
 Standard basis: 6-31G(d,p) (6D, 7F)
 There are   530 symmetry adapted cartesian basis functions of A   symmetry.
 There are   530 symmetry adapted basis functions of A   symmetry.
   530 basis functions,   924 primitive gaussians,   530 cartesian basis functions
    92 alpha electrons       92 beta electrons
       nuclear repulsion energy      1543.6417589369 Hartrees.
 NAtoms=   54 NActive=   54 NUniq=   54 SFac= 1.00D+00 NAtFMM=   60 NAOKFM=F Big=F
 Integral buffers will be    131072 words long.
 Raffenetti 2 integral format.
 Two-electron integral symmetry is turned on.
 One-electron integrals computed using PRISM.
 NBasis=   530 RedAO= T EigKep=  1.12D-03  NBF=   530
 NBsUse=   530 1.00D-06 EigRej= -1.00D+00 NBFU=   530
 ExpMin= 1.61D-01 ExpMax= 3.05D+03 ExpMxC= 4.57D+02 IAcc=3 IRadAn=         5 AccDes= 0.00D+00
 Harris functional with IExCor=  402 and IRadAn=       5 diagonalized for initial guess.
 HarFok:  IExCor=  402 AccDes= 0.00D+00 IRadAn=         5 IDoV= 1 UseB2=F ITyADJ=14
 ICtDFT=  3500011 ScaDFX=  1.000000  1.000000  1.000000  1.000000
 FoFCou: FMM=F IPFlag=           0 FMFlag=      100000 FMFlg1=           0
         NFxFlg=           0 DoJE=T BraDBF=F KetDBF=T FulRan=T
         wScrn=  0.000000 ICntrl=       500 IOpCl=  0 I1Cent=   200000004 NGrid=           0
         NMat0=    1 NMatS0=      1 NMatT0=    0 NMatD0=    1 NMtDS0=    0 NMtDT0=    0
 Petite list used in FoFCou.
 Requested convergence on RMS density matrix=1.00D-08 within 128 cycles.
 Requested convergence on MAX density matrix=1.00D-06.
 Requested convergence on             energy=1.00D-06.
 No special actions if energy rises.
 Integral accuracy reduced to 1.0D-05 until final iterations.
 Initial convergence to 1.0D-05 achieved.  Increase integral accuracy.
 SCF Done:  E(RB3LYP) =  -1007.48913344     A.U. after   13 cycles
            NFock= 13  Conv=0.67D-08     -V/T= 2.0100

 **********************************************************************

            Population analysis using the SCF Density.

 **********************************************************************

 Orbital symmetries:
       Occupied  (A) (A) (A) (A) (A) (A) (A) (A) (A) (A) (A) (A)
                 (A) (A) (A) (A) (A) (A) (A) (A) (A) (A) (A) (A)
                 (A) (A) (A) (A) (A) (A) (A) (A) (A) (A) (A) (A)
                 (A) (A) (A) (A) (A) (A) (A) (A) (A) (A) (A) (A)
                 (A) (A) (A) (A) (A) (A) (A) (A) (A) (A) (A) (A)
                 (A) (A) (A) (A) (A) (A) (A) (A) (A) (A) (A) (A)
                 (A) (A) (A) (A) (A) (A) (A) (A) (A) (A) (A) (A)
                 (A) (A) (A) (A) (A) (A) (A) (A)
       Virtual   (A) (A) (A) (A) (A) (A) (A) (A) (A) (A) (A) (A)
                 (A) (A) (A) (A) (A) (A) (A) (A) (A) (A) (A) (A)
                 (A) (A) (A) (A) (A) (A) (A) (A) (A) (A) (A) (A)
                 (A) (A) (A) (A) (A) (A) (A) (A) (A) (A) (A) (A)
                 (A) (A) (A) (A) (A) (A) (A) (A) (A) (A) (A) (A)
                 (A) (A) (A) (A) (A) (A) (A) (A) (A) (A) (A) (A)
                 (A) (A) (A) (A) (A) (A) (A) (A) (A) (A) (A) (A)
                 (A) (A) (A) (A) (A) (A) (A) (A) (A) (A) (A) (A)
                 (A) (A) (A) (A) (A) (A) (A) (A) (A) (A) (A) (A)
                 (A) (A) (A) (A) (A) (A) (A) (A) (A) (A) (A) (A)
                 (A) (A) (A) (A) (A) (A) (A) (A) (A) (A) (A) (A)
                 (A) (A) (A) (A) (A) (A) (A) (A) (A) (A) (A) (A)
                 (A) (A) (A) (A) (A) (A) (A) (A) (A) (A) (A) (A)
                 (A) (A) (A) (A) (A) (A) (A) (A) (A) (A) (A) (A)
                 (A) (A) (A) (A) (A) (A) (A) (A) (A) (A) (A) (A)
                 (A) (A) (A) (A) (A) (A) (A) (A) (A) (A) (A) (A)
                 (A) (A) (A) (A) (A) (A) (A) (A) (A) (A) (A) (A)
                 (A) (A) (A) (A) (A) (A) (A) (A) (A) (A) (A) (A)
                 (A) (A) (A) (A) (A) (A) (A) (A) (A) (A) (A) (A)
                 (A) (A) (A) (A) (A) (A) (A) (A) (A) (A) (A) (A)
                 (A) (A) (A) (A) (A) (A) (A) (A) (A) (A) (A) (A)
                 (A) (A) (A) (A) (A) (A) (A) (A) (A) (A) (A) (A)
                 (A) (A) (A) (A) (A) (A) (A) (A) (A) (A) (A) (A)
                 (A) (A) (A) (A) (A) (A) (A) (A) (A) (A) (A) (A)
                 (A) (A) (A) (A) (A) (A) (A) (A) (A) (A) (A) (A)
                 (A) (A) (A) (A) (A) (A) (A) (A) (A) (A) (A) (A)
                 (A) (A) (A) (A) (A) (A) (A) (A) (A) (A) (A) (A)
                 (A) (A) (A) (A) (A) (A) (A) (A) (A) (A) (A) (A)
                 (A) (A) (A) (A) (A) (A) (A) (A) (A) (A) (A) (A)
                 (A) (A) (A) (A) (A) (A) (A) (A) (A) (A) (A) (A)
                 (A) (A) (A) (A) (A) (A) (A) (A) (A) (A) (A) (A)
                 (A) (A) (A) (A) (A) (A) (A) (A) (A) (A) (A) (A)
                 (A) (A) (A) (A) (A) (A) (A) (A) (A) (A) (A) (A)
                 (A) (A) (A) (A) (A) (A) (A) (A) (A) (A) (A) (A)
                 (A) (A) (A) (A) (A) (A) (A) (A) (A) (A) (A) (A)
                 (A) (A) (A) (A) (A) (A) (A) (A) (A) (A) (A) (A)
                 (A) (A) (A) (A) (A) (A)
 The electronic state is 1-A.
 Alpha  occ. eigenvalues --  -10.19131 -10.19131 -10.19107 -10.19105 -10.19102
 Alpha  occ. eigenvalues --  -10.19099 -10.19095 -10.19091 -10.19087 -10.19083
 Alpha  occ. eigenvalues --  -10.19080 -10.19078 -10.19075 -10.19020 -10.19016
 Alpha  occ. eigenvalues --  -10.19011 -10.19006 -10.19002 -10.18998 -10.18995
 Alpha  occ. eigenvalues --  -10.18993 -10.18991 -10.18928 -10.18928 -10.17910
 Alpha  occ. eigenvalues --  -10.17909  -0.82921  -0.82634  -0.82157  -0.81498
 Alpha  occ. eigenvalues --   -0.80662  -0.79652  -0.78475  -0.77138  -0.75655
 Alpha  occ. eigenvalues --   -0.74046  -0.72355  -0.70686  -0.69313  -0.63503
 Alpha  occ. eigenvalues --   -0.61884  -0.59829  -0.57659  -0.57047  -0.56795
 Alpha  occ. eigenvalues --   -0.56402  -0.55860  -0.55684  -0.55194  -0.54645
 Alpha  occ. eigenvalues --   -0.54253  -0.54099  -0.48508  -0.48424  -0.47707
 Alpha  occ. eigenvalues --   -0.47161  -0.46512  -0.45611  -0.44809  -0.44499
 Alpha  occ. eigenvalues --   -0.42742  -0.42055  -0.40918  -0.40727  -0.39750
 Alpha  occ. eigenvalues --   -0.39168  -0.38660  -0.38138  -0.37831  -0.37549
 Alpha  occ. eigenvalues --   -0.37369  -0.37295  -0.36805  -0.36385  -0.35941
 Alpha  occ. eigenvalues --   -0.35320  -0.35267  -0.34896  -0.34454  -0.34280
 Alpha  occ. eigenvalues --   -0.33549  -0.33425  -0.32896  -0.32336  -0.31017
 Alpha  occ. eigenvalues --   -0.29473  -0.27713  -0.25751  -0.23614  -0.21360
 Alpha  occ. eigenvalues --   -0.19126  -0.17268
 Alpha virt. eigenvalues --   -0.07295  -0.05330  -0.02865  -0.00293   0.02180
 Alpha virt. eigenvalues --    0.04424   0.06338   0.07847   0.08241   0.08673
 Alpha virt. eigenvalues --    0.08918   0.09362   0.09569   0.09875   0.09948
 Alpha virt. eigenvalues --    0.09960   0.10278   0.11393   0.12532   0.12628
 Alpha virt. eigenvalues --    0.12791   0.13784   0.13854   0.14194   0.14254
 Alpha virt. eigenvalues --    0.14346   0.14743   0.14928   0.15229   0.15424
 Alpha virt. eigenvalues --    0.15700   0.15863   0.16155   0.17203   0.17423
 Alpha virt. eigenvalues --    0.18926   0.19754   0.19928   0.20284   0.21093
 Alpha virt. eigenvalues --    0.21102   0.25124   0.26778   0.29024   0.30674
 Alpha virt. eigenvalues --    0.30757   0.31253   0.31847   0.32895   0.33885
 Alpha virt. eigenvalues --    0.33901   0.35120   0.35805   0.36108   0.36904
 Alpha virt. eigenvalues --    0.37018   0.37093   0.37995   0.39396   0.41347
 Alpha virt. eigenvalues --    0.41387   0.41521   0.42020   0.42334   0.44086
 Alpha virt. eigenvalues --    0.44259   0.47442   0.48390   0.51520   0.51663
 Alpha virt. eigenvalues --    0.51911   0.52336   0.52841   0.52945   0.53743
 Alpha virt. eigenvalues --    0.54729   0.54781   0.55894   0.56017   0.56729
 Alpha virt. eigenvalues --    0.57245   0.57613   0.57691   0.58145   0.58713
 Alpha virt. eigenvalues --    0.58799   0.58870   0.59121   0.59319   0.59349
 Alpha virt. eigenvalues --    0.59373   0.60099   0.60274   0.60615   0.60813
 Alpha virt. eigenvalues --    0.61495   0.61525   0.62441   0.62746   0.62799
 Alpha virt. eigenvalues --    0.64025   0.64175   0.64283   0.65514   0.65543
 Alpha virt. eigenvalues --    0.65880   0.66382   0.66624   0.67446   0.68541
 Alpha virt. eigenvalues --    0.68713   0.69729   0.69763   0.69878   0.71917
 Alpha virt. eigenvalues --    0.72104   0.74471   0.74632   0.76310   0.76372
 Alpha virt. eigenvalues --    0.78603   0.78793   0.79241   0.80014   0.81096
 Alpha virt. eigenvalues --    0.82352   0.83321   0.83774   0.84502   0.84529
 Alpha virt. eigenvalues --    0.84688   0.84983   0.85376   0.85823   0.85917
 Alpha virt. eigenvalues --    0.86262   0.86632   0.86895   0.87200   0.87393
 Alpha virt. eigenvalues --    0.87546   0.87778   0.87966   0.88697   0.89534
 Alpha virt. eigenvalues --    0.89960   0.91150   0.91191   0.91654   0.92093
 Alpha virt. eigenvalues --    0.92297   0.93121   0.94184   0.94780   0.97006
 Alpha virt. eigenvalues --    0.97436   0.99268   1.02086   1.02615   1.02665
 Alpha virt. eigenvalues --    1.03625   1.03825   1.05034   1.05346   1.06261
 Alpha virt. eigenvalues --    1.06395   1.07155   1.07311   1.08690   1.09457
 Alpha virt. eigenvalues --    1.10280   1.10414   1.11635   1.13535   1.15705
 Alpha virt. eigenvalues --    1.15723   1.17917   1.18937   1.21621   1.23283
 Alpha virt. eigenvalues --    1.25066   1.27490   1.29038   1.29499   1.29500
 Alpha virt. eigenvalues --    1.29865   1.30092   1.30130   1.30835   1.30885
 Alpha virt. eigenvalues --    1.31048   1.31497   1.31566   1.32258   1.32361
 Alpha virt. eigenvalues --    1.32785   1.33182   1.33490   1.33609   1.33956
 Alpha virt. eigenvalues --    1.34525   1.34858   1.35300   1.35887   1.36747
 Alpha virt. eigenvalues --    1.37828   1.39039   1.40342   1.41728   1.41974
 Alpha virt. eigenvalues --    1.43188   1.44699   1.46223   1.47701   1.47775
 Alpha virt. eigenvalues --    1.49069   1.50182   1.50252   1.51178   1.51788
 Alpha virt. eigenvalues --    1.51809   1.51822   1.52083   1.54043   1.54213
 Alpha virt. eigenvalues --    1.76349   1.76452   1.76569   1.76648   1.76672
 Alpha virt. eigenvalues --    1.76696   1.77103   1.77115   1.77721   1.77851
 Alpha virt. eigenvalues --    1.78509   1.78590   1.82360   1.83592   1.85557
 Alpha virt. eigenvalues --    1.86263   1.86264   1.88123   1.91128   1.91440
 Alpha virt. eigenvalues --    1.92124   1.92130   1.92848   1.93093   1.93277
 Alpha virt. eigenvalues --    1.94343   1.94390   1.94726   1.94862   1.95759
 Alpha virt. eigenvalues --    1.96413   1.97015   1.97726   1.98174   1.98426
 Alpha virt. eigenvalues --    2.00967   2.03121   2.03840   2.03991   2.05542
 Alpha virt. eigenvalues --    2.06715   2.08149   2.08222   2.08853   2.09071
 Alpha virt. eigenvalues --    2.10802   2.10893   2.11153   2.12130   2.14119
 Alpha virt. eigenvalues --    2.15414   2.16297   2.17657   2.18049   2.18317
 Alpha virt. eigenvalues --    2.18504   2.19251   2.19533   2.20882   2.21194
 Alpha virt. eigenvalues --    2.22227   2.22948   2.23566   2.23922   2.24023
 Alpha virt. eigenvalues --    2.24766   2.26650   2.27211   2.28609   2.30646
 Alpha virt. eigenvalues --    2.32738   2.33225   2.34801   2.36616   2.37802
 Alpha virt. eigenvalues --    2.39887   2.41602   2.41611   2.44552   2.44599
 Alpha virt. eigenvalues --    2.45389   2.46222   2.46347   2.47578   2.48192
 Alpha virt. eigenvalues --    2.48625   2.48715   2.49074   2.49881   2.50298
 Alpha virt. eigenvalues --    2.50443   2.51412   2.51580   2.51625   2.52335
 Alpha virt. eigenvalues --    2.53378   2.53483   2.53676   2.54191   2.54473
 Alpha virt. eigenvalues --    2.55575   2.55991   2.57070   2.57758   2.58356
 Alpha virt. eigenvalues --    2.58686   2.59520   2.59937   2.61429   2.62150
 Alpha virt. eigenvalues --    2.62754   2.64094   2.64159   2.64624   2.65314
 Alpha virt. eigenvalues --    2.66195   2.66843   2.67548   2.68302   2.69253
 Alpha virt. eigenvalues --    2.69782   2.70082   2.70367   2.70641   2.70840
 Alpha virt. eigenvalues --    2.70857   2.71242   2.71980   2.72864   2.74553
 Alpha virt. eigenvalues --    2.76499   2.77723   2.77988   2.80423   2.82201
 Alpha virt. eigenvalues --    2.83925   2.85247   2.85927   2.86902   2.88029
 Alpha virt. eigenvalues --    2.89381   2.91095   2.91471   2.91560   2.91693
 Alpha virt. eigenvalues --    2.92603   2.92739   2.92961   2.93496   2.94766
 Alpha virt. eigenvalues --    2.95277   2.96719   2.96943   2.98353   2.98401
 Alpha virt. eigenvalues --    2.99515   2.99540   3.00078   3.00179   3.28041
 Alpha virt. eigenvalues --    3.28042   3.35200   3.35437   3.35873   3.36556
 Alpha virt. eigenvalues --    3.37522   3.38730   3.40084   3.41571   3.43298
 Alpha virt. eigenvalues --    3.45396   3.47924   3.50814   3.51557   3.53734
 Alpha virt. eigenvalues --    3.53925   3.57118   3.59128   3.60687   3.61958
 Alpha virt. eigenvalues --    3.63945   3.64966   3.66439   3.67429   3.67994
 Alpha virt. eigenvalues --    3.71049   3.71086   4.13723   4.13775   4.13880
 Alpha virt. eigenvalues --    4.13985   4.14113   4.14336   4.14720   4.15322
 Alpha virt. eigenvalues --    4.16198   4.17400   4.18974   4.20928   4.25025
 Alpha virt. eigenvalues --    4.26255   4.30003   4.33947   4.38335   4.43101
 Alpha virt. eigenvalues --    4.48139   4.53310   4.58428   4.63280   4.67645
 Alpha virt. eigenvalues --    4.71304   4.74066   4.75790
          Condensed to atoms (all electrons):
 Mulliken charges:
               1
     1  C   -0.251957
     2  C   -0.033583
     3  C   -0.077862
     4  C   -0.076725
     5  C   -0.080793
     6  C   -0.078961
     7  C   -0.079888
     8  C   -0.079614
     9  C   -0.079780
    10  C   -0.079723
    11  C   -0.079736
    12  C   -0.079755
    13  C   -0.079716
    14  C   -0.079753
    15  C   -0.079710
    16  C   -0.079751
    17  C   -0.079691
    18  C   -0.079768
    19  C   -0.079606
    20  C   -0.079861
    21  C   -0.078978
    22  C   -0.080769
    23  C   -0.076753
    24  C   -0.077852
    25  C   -0.033594
    26  C   -0.251969
    27  H    0.095347
    28  H    0.095504
    29  H    0.083693
    30  H    0.081591
    31  H    0.080931
    32  H    0.080563
    33  H    0.080183
    34  H    0.080188
    35  H    0.080021
    36  H    0.080071
    37  H    0.079968
    38  H    0.080024
    39  H    0.079962
    40  H    0.080000
    41  H    0.079982
    42  H    0.079987
    43  H    0.080021
    44  H    0.079988
    45  H    0.080082
    46  H    0.080029
    47  H    0.080207
    48  H    0.080179
    49  H    0.080578
    50  H    0.080921
    51  H    0.081596
    52  H    0.083686
    53  H    0.095500
    54  H    0.095343
 Sum of Mulliken charges =  -0.00000
 Mulliken charges with hydrogens summed into heavy atoms:
               1
     1  C   -0.061106
     2  C    0.050109
     3  C    0.003730
     4  C    0.004206
     5  C   -0.000230
     6  C    0.001221
     7  C    0.000300
     8  C    0.000407
     9  C    0.000291
    10  C    0.000245
    11  C    0.000288
    12  C    0.000208
    13  C    0.000285
    14  C    0.000229
    15  C    0.000277
    16  C    0.000270
    17  C    0.000298
    18  C    0.000314
    19  C    0.000423
    20  C    0.000345
    21  C    0.001201
    22  C   -0.000191
    23  C    0.004168
    24  C    0.003744
    25  C    0.050092
    26  C   -0.061126
 Electronic spatial extent (au):  <R**2>=          57420.2665
 Charge=             -0.0000 electrons
 Dipole moment (field-independent basis, Debye):
    X=              0.0013    Y=              0.0002    Z=              0.0003  Tot=              0.0013
 Quadrupole moment (field-independent basis, Debye-Ang):
   XX=           -152.6009   YY=           -136.3089   ZZ=           -169.5412
   XY=              1.9456   XZ=              0.0176   YZ=              0.0045
 Traceless Quadrupole moment (field-independent basis, Debye-Ang):
   XX=              0.2161   YY=             16.5081   ZZ=            -16.7242
   XY=              1.9456   XZ=              0.0176   YZ=              0.0045
 Octapole moment (field-independent basis, Debye-Ang**2):
  XXX=             -0.2868  YYY=              0.0029  ZZZ=             -0.0019  XYY=             -0.0118
  XXY=              0.0674  XXZ=              0.1448  XZZ=              0.0010  YZZ=              0.0011
  YYZ=             -0.0002  XYZ=             -0.0876
 Hexadecapole moment (field-independent basis, Debye-Ang**3):
 XXXX=         -77414.6324 YYYY=           -439.9723 ZZZZ=           -175.8186 XXXY=            513.9135
 XXXZ=              6.6521 YYYX=             -0.4133 YYYZ=              0.0077 ZZZX=             -0.0423
 ZZZY=              0.0037 XXYY=         -11935.0485 XXZZ=         -14761.0189 YYZZ=           -115.4284
 XXYZ=             -0.5564 YYXZ=             -0.0035 ZZXY=              1.3081
 N-N= 1.543641758937D+03 E-N=-5.417722952865D+03  KE= 9.975135268681D+02
 Calling FoFJK, ICntrl=      2127 FMM=F ISym2X=0 I1Cent= 0 IOpClX= 0 NMat=1 NMatS=1 NMatT=0.
 ***** Axes restored to original set *****
 -------------------------------------------------------------------
 Center     Atomic                   Forces (Hartrees/Bohr)
 Number     Number              X              Y              Z
 -------------------------------------------------------------------
      1        6          -0.008403893    0.004071173   -0.000186821
      2        6           0.010756506   -0.022492335    0.001280303
      3        6          -0.021259864    0.023788278   -0.001285803
      4        6           0.024736925   -0.025827102    0.001385392
      5        6          -0.026838923    0.024995665   -0.001322596
      6        6           0.027677549   -0.025622035    0.001356802
      7        6          -0.028379416    0.025297567   -0.001335856
      8        6           0.028704132   -0.025495191    0.001349006
      9        6          -0.028951074    0.025355490   -0.001343265
     10        6           0.029110950   -0.025414365    0.001349741
     11        6          -0.029195950    0.025345486   -0.001349051
     12        6           0.029276385   -0.025353568    0.001352529
     13        6          -0.029292882    0.025326509   -0.001352868
     14        6           0.029310125   -0.025316720    0.001354025
     15        6          -0.029283509    0.025328027   -0.001353636
     16        6           0.029229982   -0.025304815    0.001352020
     17        6          -0.029140151    0.025364647   -0.001351259
     18        6           0.028989180   -0.025301187    0.001345598
     19        6          -0.028745377    0.025441349   -0.001348133
     20        6           0.028410886   -0.025249767    0.001334887
     21        6          -0.027717613    0.025581764   -0.001352305
     22        6           0.026860185   -0.024966594    0.001317926
     23        6          -0.024766116    0.025806901   -0.001380407
     24        6           0.021274256   -0.023777304    0.001282998
     25        6          -0.010771705    0.022488185   -0.001287647
     26        6           0.008411786   -0.004070207    0.000180681
     27        1          -0.002739374   -0.003542949    0.000232458
     28        1          -0.002401525    0.000464306   -0.000011628
     29        1           0.005372036    0.000206104   -0.000050244
     30        1          -0.003420633    0.000556912   -0.000010727
     31        1           0.003203336   -0.000410025    0.000001911
     32        1          -0.003207958    0.000468331   -0.000007975
     33        1           0.003213186   -0.000417889    0.000002431
     34        1          -0.003214063    0.000446865   -0.000007958
     35        1           0.003208933   -0.000421807    0.000003240
     36        1          -0.003208206    0.000434146   -0.000008361
     37        1           0.003203356   -0.000416749    0.000004023
     38        1          -0.003201329    0.000424901   -0.000008320
     39        1           0.003197563   -0.000411891    0.000005171
     40        1          -0.003195447    0.000417639   -0.000007381
     41        1           0.003194020   -0.000411677    0.000006590
     42        1          -0.003193117    0.000412684   -0.000005503
     43        1           0.003194807   -0.000417753    0.000007881
     44        1          -0.003195693    0.000410703   -0.000003077
     45        1           0.003200175   -0.000429822    0.000008583
     46        1          -0.003202372    0.000411017   -0.000000727
     47        1           0.003208745   -0.000446701    0.000008471
     48        1          -0.003210991    0.000407127    0.000001252
     49        1           0.003207559   -0.000470198    0.000008003
     50        1          -0.003205420    0.000404301    0.000002130
     51        1           0.003423736   -0.000556191    0.000009410
     52        1          -0.005374819   -0.000204304    0.000057138
     53        1           0.002403530   -0.000456756    0.000010117
     54        1           0.002737591    0.003549827   -0.000239165
 -------------------------------------------------------------------
 Cartesian Forces:  Max     0.029310125 RMS     0.014208803

 GradGradGradGradGradGradGradGradGradGradGradGradGradGradGradGradGradGrad
 Berny optimization.
 FormGI is forming the generalized inverse of G from B-inverse, IUseBI=4.
 Internal  Forces:  Max     0.022093122 RMS     0.008210961
 Search for a local minimum.
 Step number   1 out of a maximum of  241
 All quantities printed in internal units (Hartrees-Bohrs-Radians)
 Mixed Optimization -- RFO/linear search
 Second derivative matrix not updated -- first step.
 ITU=  0
     Eigenvalues ---    0.01059   0.01059   0.01059   0.01060   0.01060
     Eigenvalues ---    0.01060   0.01060   0.01061   0.01061   0.01061
     Eigenvalues ---    0.01065   0.01066   0.01978   0.01978   0.01978
     Eigenvalues ---    0.01978   0.01978   0.01978   0.01978   0.01978
     Eigenvalues ---    0.01978   0.01978   0.01978   0.01978   0.01978
     Eigenvalues ---    0.01978   0.01978   0.01978   0.01978   0.01978
     Eigenvalues ---    0.01979   0.01979   0.01982   0.01982   0.01998
     Eigenvalues ---    0.01998   0.02887   0.02887   0.02887   0.02887
     Eigenvalues ---    0.02887   0.02887   0.02888   0.02888   0.02888
     Eigenvalues ---    0.02889   0.02889   0.02949   0.02949   0.02949
     Eigenvalues ---    0.02949   0.16000   0.16000   0.16000   0.16000
     Eigenvalues ---    0.16000   0.16000   0.16000   0.16000   0.16000
     Eigenvalues ---    0.16000   0.16000   0.16000   0.16000   0.16000
     Eigenvalues ---    0.16000   0.16000   0.16000   0.16000   0.16000
     Eigenvalues ---    0.16000   0.16000   0.16000   0.16000   0.16000
     Eigenvalues ---    0.16000   0.16000   0.16000   0.16000   0.22000
     Eigenvalues ---    0.22000   0.22000   0.22000   0.22000   0.22000
     Eigenvalues ---    0.22000   0.22000   0.22000   0.22000   0.22000
     Eigenvalues ---    0.22000   0.22000   0.22000   0.22000   0.22000
     Eigenvalues ---    0.22000   0.22000   0.22000   0.22000   0.22000
     Eigenvalues ---    0.22000   0.22000   0.22000   0.34817   0.34818
     Eigenvalues ---    0.34820   0.34823   0.34824   0.34828   0.34828
     Eigenvalues ---    0.34832   0.34832   0.34833   0.34874   0.34877
     Eigenvalues ---    0.35079   0.35079   0.35081   0.35081   0.35081
     Eigenvalues ---    0.35081   0.35081   0.35082   0.35082   0.35082
     Eigenvalues ---    0.35082   0.35082   0.35083   0.35083   0.35083
     Eigenvalues ---    0.35083   0.35083   0.35083   0.35083   0.35083
     Eigenvalues ---    0.35084   0.35084   0.35190   0.35190   0.35274
     Eigenvalues ---    0.35275   0.35369   0.35370   0.57277   0.57278
     Eigenvalues ---    0.57282   0.57283   0.57290   0.57290   0.57296
     Eigenvalues ---    0.57298   0.57299   0.57312   0.57314   0.58344
     Eigenvalues ---    0.58347
 RFO step:  Lambda=-4.34968686D-02 EMin= 1.05898164D-02
 Linear search not attempted -- first point.
 Maximum step size (   0.300) exceeded in Quadratic search.
    -- Step size scaled by   0.808
 Iteration  1 RMS(Cart)=  0.08004429 RMS(Int)=  0.00029566
 Iteration  2 RMS(Cart)=  0.00137596 RMS(Int)=  0.00000023
 Iteration  3 RMS(Cart)=  0.00000017 RMS(Int)=  0.00000023
 Variable       Old X    -DE/DX   Delta X   Delta X   Delta X     New X
                                 (Linear)    (Quad)   (Total)
    R1        2.52275   0.01191   0.00000   0.01536   0.01536   2.53811
    R2        2.05078   0.00017   0.00000   0.00034   0.00034   2.05112
    R3        2.05233  -0.00018   0.00000  -0.00037  -0.00037   2.05195
    R4        2.79176  -0.01417   0.00000  -0.02920  -0.02920   2.76256
    R5        2.05367   0.00062   0.00000   0.00127   0.00127   2.05495
    R6        2.53134   0.01879   0.00000   0.02464   0.02464   2.55597
    R7        2.05544  -0.00025   0.00000  -0.00052  -0.00052   2.05492
    R8        2.79271  -0.01791   0.00000  -0.03697  -0.03697   2.75574
    R9        2.05547  -0.00013   0.00000  -0.00026  -0.00026   2.05521
   R10        2.53144   0.02102   0.00000   0.02756   0.02756   2.55900
   R11        2.05540  -0.00019   0.00000  -0.00038  -0.00038   2.05501
   R12        2.79267  -0.01891   0.00000  -0.03903  -0.03903   2.75364
   R13        2.05544  -0.00014   0.00000  -0.00028  -0.00028   2.05515
   R14        2.53147   0.02176   0.00000   0.02853   0.02853   2.56000
   R15        2.05539  -0.00017   0.00000  -0.00035  -0.00035   2.05504
   R16        2.79262  -0.01924   0.00000  -0.03971  -0.03971   2.75291
   R17        2.05543  -0.00015   0.00000  -0.00030  -0.00030   2.05513
   R18        2.53152   0.02201   0.00000   0.02887   0.02887   2.56039
   R19        2.05539  -0.00016   0.00000  -0.00034  -0.00034   2.05506
   R20        2.79255  -0.01936   0.00000  -0.03995  -0.03995   2.75260
   R21        2.05542  -0.00015   0.00000  -0.00031  -0.00031   2.05511
   R22        2.53158   0.02209   0.00000   0.02897   0.02897   2.56055
   R23        2.05540  -0.00016   0.00000  -0.00033  -0.00033   2.05507
   R24        2.79249  -0.01939   0.00000  -0.04002  -0.04002   2.75248
   R25        2.05541  -0.00015   0.00000  -0.00031  -0.00031   2.05510
   R26        2.53162   0.02209   0.00000   0.02898   0.02898   2.56060
   R27        2.05541  -0.00016   0.00000  -0.00033  -0.00033   2.05508
   R28        2.79246  -0.01939   0.00000  -0.04000  -0.04000   2.75246
   R29        2.05540  -0.00016   0.00000  -0.00032  -0.00032   2.05509
   R30        2.53162   0.02206   0.00000   0.02894   0.02894   2.56056
   R31        2.05541  -0.00016   0.00000  -0.00032  -0.00032   2.05509
   R32        2.79248  -0.01935   0.00000  -0.03992  -0.03992   2.75256
   R33        2.05540  -0.00016   0.00000  -0.00033  -0.00033   2.05507
   R34        2.53159   0.02198   0.00000   0.02883   0.02883   2.56041
   R35        2.05542  -0.00015   0.00000  -0.00031  -0.00031   2.05511
   R36        2.79254  -0.01923   0.00000  -0.03967  -0.03967   2.75287
   R37        2.05540  -0.00017   0.00000  -0.00034  -0.00034   2.05506
   R38        2.53152   0.02173   0.00000   0.02850   0.02850   2.56002
   R39        2.05542  -0.00014   0.00000  -0.00030  -0.00030   2.05512
   R40        2.79264  -0.01890   0.00000  -0.03901  -0.03901   2.75362
   R41        2.05540  -0.00018   0.00000  -0.00036  -0.00036   2.05504
   R42        2.53145   0.02101   0.00000   0.02755   0.02755   2.55900
   R43        2.05543  -0.00013   0.00000  -0.00027  -0.00027   2.05516
   R44        2.79273  -0.01792   0.00000  -0.03698  -0.03698   2.75575
   R45        2.05541  -0.00019   0.00000  -0.00040  -0.00040   2.05501
   R46        2.53131   0.01880   0.00000   0.02465   0.02465   2.55597
   R47        2.05547  -0.00012   0.00000  -0.00025  -0.00025   2.05521
   R48        2.79180  -0.01418   0.00000  -0.02922  -0.02922   2.76257
   R49        2.05544  -0.00025   0.00000  -0.00052  -0.00052   2.05492
   R50        2.52273   0.01193   0.00000   0.01538   0.01538   2.53810
   R51        2.05368   0.00062   0.00000   0.00127   0.00127   2.05495
   R52        2.05231  -0.00018   0.00000  -0.00036  -0.00036   2.05195
   R53        2.05079   0.00016   0.00000   0.00033   0.00033   2.05112
    A1        2.09379   0.00446   0.00000   0.01771   0.01771   2.11150
    A2        2.11475   0.00027   0.00000   0.00109   0.00109   2.11584
    A3        2.07464  -0.00473   0.00000  -0.01880  -0.01880   2.05584
    A4        2.11411   0.01183   0.00000   0.03631   0.03631   2.15041
    A5        2.07615  -0.00043   0.00000   0.00363   0.00363   2.07978
    A6        2.09293  -0.01140   0.00000  -0.03994  -0.03994   2.05300
    A7        2.11018   0.01221   0.00000   0.03745   0.03745   2.14764
    A8        2.08164  -0.00966   0.00000  -0.03284  -0.03284   2.04880
    A9        2.09136  -0.00255   0.00000  -0.00461  -0.00461   2.08675
   A10        2.11131   0.01265   0.00000   0.03882   0.03882   2.15013
   A11        2.09020  -0.00301   0.00000  -0.00623  -0.00623   2.08396
   A12        2.08168  -0.00964   0.00000  -0.03258  -0.03258   2.04909
   A13        2.11021   0.01252   0.00000   0.03841   0.03841   2.14862
   A14        2.08215  -0.00959   0.00000  -0.03242  -0.03242   2.04973
   A15        2.09083  -0.00293   0.00000  -0.00599  -0.00599   2.08484
   A16        2.11163   0.01254   0.00000   0.03847   0.03847   2.15009
   A17        2.09022  -0.00294   0.00000  -0.00602  -0.00602   2.08420
   A18        2.08134  -0.00960   0.00000  -0.03245  -0.03245   2.04889
   A19        2.10989   0.01268   0.00000   0.03889   0.03889   2.14878
   A20        2.08232  -0.00967   0.00000  -0.03267  -0.03267   2.04965
   A21        2.09097  -0.00301   0.00000  -0.00621  -0.00621   2.08475
   A22        2.11185   0.01249   0.00000   0.03832   0.03832   2.15017
   A23        2.09014  -0.00292   0.00000  -0.00596  -0.00596   2.08418
   A24        2.08119  -0.00957   0.00000  -0.03236  -0.03236   2.04884
   A25        2.10977   0.01273   0.00000   0.03907   0.03907   2.14884
   A26        2.08237  -0.00969   0.00000  -0.03273  -0.03273   2.04963
   A27        2.09105  -0.00304   0.00000  -0.00633  -0.00633   2.08471
   A28        2.11185   0.01248   0.00000   0.03829   0.03829   2.15013
   A29        2.09017  -0.00292   0.00000  -0.00597  -0.00597   2.08420
   A30        2.08117  -0.00956   0.00000  -0.03232  -0.03232   2.04885
   A31        2.10993   0.01273   0.00000   0.03905   0.03905   2.14898
   A32        2.08225  -0.00968   0.00000  -0.03269  -0.03269   2.04955
   A33        2.09101  -0.00305   0.00000  -0.00636  -0.00636   2.08465
   A34        2.11155   0.01251   0.00000   0.03839   0.03839   2.14994
   A35        2.09033  -0.00295   0.00000  -0.00605  -0.00605   2.08428
   A36        2.08131  -0.00957   0.00000  -0.03234  -0.03234   2.04897
   A37        2.11037   0.01268   0.00000   0.03889   0.03889   2.14926
   A38        2.08197  -0.00965   0.00000  -0.03259  -0.03259   2.04939
   A39        2.09085  -0.00303   0.00000  -0.00630  -0.00630   2.08454
   A40        2.11101   0.01258   0.00000   0.03860   0.03860   2.14961
   A41        2.09058  -0.00299   0.00000  -0.00617  -0.00617   2.08441
   A42        2.08160  -0.00960   0.00000  -0.03243  -0.03243   2.04917
   A43        2.11099   0.01259   0.00000   0.03864   0.03864   2.14962
   A44        2.08161  -0.00960   0.00000  -0.03245  -0.03245   2.04916
   A45        2.09059  -0.00299   0.00000  -0.00619  -0.00619   2.08440
   A46        2.11037   0.01266   0.00000   0.03885   0.03885   2.14922
   A47        2.09085  -0.00302   0.00000  -0.00629  -0.00629   2.08456
   A48        2.08197  -0.00964   0.00000  -0.03256  -0.03256   2.04941
   A49        2.11159   0.01251   0.00000   0.03839   0.03839   2.14998
   A50        2.08128  -0.00956   0.00000  -0.03233  -0.03233   2.04895
   A51        2.09031  -0.00295   0.00000  -0.00605  -0.00605   2.08426
   A52        2.10985   0.01272   0.00000   0.03903   0.03903   2.14888
   A53        2.09105  -0.00305   0.00000  -0.00635  -0.00635   2.08470
   A54        2.08229  -0.00967   0.00000  -0.03268  -0.03268   2.04961
   A55        2.11196   0.01247   0.00000   0.03825   0.03825   2.15022
   A56        2.08110  -0.00955   0.00000  -0.03230  -0.03230   2.04881
   A57        2.09012  -0.00292   0.00000  -0.00596  -0.00596   2.08416
   A58        2.10966   0.01271   0.00000   0.03899   0.03899   2.14865
   A59        2.09110  -0.00303   0.00000  -0.00629  -0.00629   2.08481
   A60        2.08244  -0.00968   0.00000  -0.03270  -0.03270   2.04973
   A61        2.11196   0.01249   0.00000   0.03831   0.03831   2.15027
   A62        2.08114  -0.00957   0.00000  -0.03236  -0.03236   2.04878
   A63        2.09009  -0.00292   0.00000  -0.00595  -0.00595   2.08414
   A64        2.10986   0.01257   0.00000   0.03857   0.03857   2.14842
   A65        2.09099  -0.00296   0.00000  -0.00607  -0.00607   2.08491
   A66        2.08234  -0.00961   0.00000  -0.03250  -0.03250   2.04985
   A67        2.11163   0.01261   0.00000   0.03868   0.03868   2.15030
   A68        2.08150  -0.00962   0.00000  -0.03252  -0.03252   2.04898
   A69        2.09006  -0.00299   0.00000  -0.00616  -0.00616   2.08390
   A70        2.10995   0.01224   0.00000   0.03756   0.03756   2.14751
   A71        2.09146  -0.00257   0.00000  -0.00466  -0.00466   2.08680
   A72        2.08178  -0.00968   0.00000  -0.03290  -0.03290   2.04888
   A73        2.11424   0.01182   0.00000   0.03625   0.03625   2.15049
   A74        2.09286  -0.01139   0.00000  -0.03992  -0.03992   2.05294
   A75        2.07608  -0.00042   0.00000   0.00367   0.00367   2.07975
   A76        2.11478   0.00027   0.00000   0.00108   0.00108   2.11586
   A77        2.09373   0.00446   0.00000   0.01773   0.01773   2.11146
   A78        2.07468  -0.00474   0.00000  -0.01882  -0.01882   2.05586
    D1        3.14157   0.00000   0.00000   0.00000   0.00000   3.14158
    D2        0.00001  -0.00000   0.00000  -0.00000  -0.00000   0.00000
    D3       -0.00001  -0.00000   0.00000  -0.00000  -0.00000  -0.00001
    D4       -3.14158  -0.00000   0.00000  -0.00001  -0.00001  -3.14158
    D5       -3.14151  -0.00000   0.00000  -0.00002  -0.00002  -3.14153
    D6        0.00003   0.00000   0.00000   0.00000   0.00000   0.00003
    D7        0.00005  -0.00000   0.00000  -0.00001  -0.00001   0.00005
    D8       -3.14159   0.00000   0.00000   0.00001   0.00001  -3.14158
    D9        3.14150   0.00000   0.00000   0.00002   0.00002   3.14153
   D10       -0.00001  -0.00000   0.00000  -0.00000  -0.00000  -0.00001
   D11       -0.00004   0.00000   0.00000   0.00001   0.00001  -0.00003
   D12       -3.14155  -0.00000   0.00000  -0.00002  -0.00002  -3.14157
   D13       -3.14137  -0.00000   0.00000  -0.00004  -0.00004  -3.14141
   D14        0.00011  -0.00000   0.00000  -0.00001  -0.00001   0.00010
   D15        0.00014  -0.00000   0.00000  -0.00002  -0.00002   0.00012
   D16       -3.14157   0.00000   0.00000   0.00002   0.00002  -3.14155
   D17        3.14141   0.00000   0.00000   0.00004   0.00004   3.14145
   D18       -0.00003   0.00000   0.00000   0.00000   0.00000  -0.00003
   D19       -0.00007   0.00000   0.00000   0.00001   0.00001  -0.00006
   D20       -3.14151  -0.00000   0.00000  -0.00003  -0.00004  -3.14154
   D21       -3.14121  -0.00001   0.00000  -0.00007  -0.00007  -3.14128
   D22        0.00020  -0.00000   0.00000  -0.00002  -0.00002   0.00018
   D23        0.00023  -0.00000   0.00000  -0.00003  -0.00003   0.00020
   D24       -3.14154   0.00000   0.00000   0.00003   0.00003  -3.14151
   D25        3.14133   0.00000   0.00000   0.00006   0.00006   3.14139
   D26       -0.00006   0.00000   0.00000   0.00000   0.00000  -0.00006
   D27       -0.00008   0.00000   0.00000   0.00001   0.00001  -0.00008
   D28       -3.14148  -0.00000   0.00000  -0.00005  -0.00005  -3.14153
   D29       -3.14111  -0.00001   0.00000  -0.00009  -0.00009  -3.14120
   D30        0.00028  -0.00000   0.00000  -0.00003  -0.00003   0.00025
   D31        0.00029  -0.00000   0.00000  -0.00003  -0.00003   0.00025
   D32       -3.14152   0.00000   0.00000   0.00003   0.00003  -3.14149
   D33        3.14130   0.00001   0.00000   0.00007   0.00007   3.14137
   D34       -0.00009   0.00000   0.00000   0.00001   0.00001  -0.00008
   D35       -0.00008   0.00000   0.00000   0.00001   0.00001  -0.00007
   D36       -3.14147  -0.00000   0.00000  -0.00005  -0.00005  -3.14152
   D37       -3.14113  -0.00001   0.00000  -0.00009  -0.00009  -3.14122
   D38        0.00028  -0.00000   0.00000  -0.00003  -0.00003   0.00024
   D39        0.00025  -0.00000   0.00000  -0.00003  -0.00003   0.00023
   D40       -3.14152   0.00000   0.00000   0.00003   0.00003  -3.14149
   D41        3.14136   0.00000   0.00000   0.00006   0.00006   3.14142
   D42       -0.00009   0.00000   0.00000   0.00001   0.00001  -0.00008
   D43       -0.00005   0.00000   0.00000   0.00000   0.00000  -0.00005
   D44       -3.14150  -0.00000   0.00000  -0.00004  -0.00004  -3.14154
   D45       -3.14134  -0.00000   0.00000  -0.00005  -0.00005  -3.14139
   D46        0.00018  -0.00000   0.00000  -0.00003  -0.00003   0.00015
   D47        0.00011  -0.00000   0.00000  -0.00000  -0.00000   0.00011
   D48       -3.14156   0.00000   0.00000   0.00002   0.00002  -3.14154
   D49        3.14152   0.00000   0.00000   0.00002   0.00002   3.14154
   D50       -0.00006   0.00000   0.00000   0.00001   0.00001  -0.00005
   D51        0.00000  -0.00000   0.00000  -0.00000  -0.00000   0.00000
   D52       -3.14158  -0.00000   0.00000  -0.00001  -0.00001  -3.14159
   D53        3.14148   0.00000   0.00000   0.00002   0.00002   3.14150
   D54       -0.00004  -0.00000   0.00000  -0.00001  -0.00001  -0.00004
   D55       -0.00013   0.00000   0.00000   0.00003   0.00003  -0.00010
   D56        3.14154  -0.00000   0.00000  -0.00000  -0.00000   3.14154
   D57       -3.14145  -0.00000   0.00000  -0.00003  -0.00003  -3.14148
   D58       -0.00001   0.00000   0.00000   0.00001   0.00001   0.00000
   D59        0.00007  -0.00000   0.00000  -0.00001  -0.00001   0.00006
   D60        3.14150   0.00000   0.00000   0.00004   0.00004   3.14154
   D61        3.14105   0.00001   0.00000   0.00010   0.00010   3.14115
   D62       -0.00030   0.00000   0.00000   0.00002   0.00002  -0.00028
   D63       -0.00039   0.00000   0.00000   0.00006   0.00006  -0.00034
   D64        3.14144  -0.00000   0.00000  -0.00002  -0.00002   3.14142
   D65       -3.14124  -0.00001   0.00000  -0.00008  -0.00008  -3.14132
   D66        0.00005   0.00000   0.00000   0.00001   0.00001   0.00006
   D67        0.00011  -0.00000   0.00000  -0.00001  -0.00001   0.00010
   D68        3.14140   0.00001   0.00000   0.00008   0.00008   3.14148
   D69        3.14072   0.00001   0.00000   0.00016   0.00016   3.14088
   D70       -0.00053   0.00000   0.00000   0.00006   0.00006  -0.00048
   D71       -0.00058   0.00001   0.00000   0.00007   0.00007  -0.00051
   D72        3.14136  -0.00000   0.00000  -0.00003  -0.00003   3.14132
   D73       -3.14113  -0.00001   0.00000  -0.00011  -0.00011  -3.14123
   D74        0.00011  -0.00000   0.00000  -0.00000  -0.00000   0.00010
   D75        0.00012  -0.00000   0.00000  -0.00000  -0.00000   0.00011
   D76        3.14135   0.00001   0.00000   0.00010   0.00010   3.14145
   D77        3.14063   0.00001   0.00000   0.00018   0.00018   3.14081
   D78       -0.00062   0.00000   0.00000   0.00007   0.00007  -0.00055
   D79       -0.00060   0.00000   0.00000   0.00007   0.00007  -0.00053
   D80        3.14133  -0.00000   0.00000  -0.00004  -0.00004   3.14130
   D81       -3.14117  -0.00001   0.00000  -0.00010  -0.00010  -3.14126
   D82        0.00012  -0.00000   0.00000  -0.00001  -0.00001   0.00011
   D83        0.00008   0.00000   0.00000   0.00000   0.00000   0.00008
   D84        3.14137   0.00001   0.00000   0.00009   0.00010   3.14146
   D85        3.14085   0.00001   0.00000   0.00014   0.00014   3.14098
   D86       -0.00051   0.00000   0.00000   0.00007   0.00007  -0.00045
   D87       -0.00044   0.00000   0.00000   0.00004   0.00004  -0.00040
   D88        3.14138  -0.00000   0.00000  -0.00003  -0.00003   3.14136
   D89       -3.14134  -0.00000   0.00000  -0.00006  -0.00006  -3.14139
   D90        0.00009  -0.00000   0.00000  -0.00001  -0.00001   0.00008
   D91        0.00002   0.00000   0.00000   0.00001   0.00001   0.00003
   D92        3.14145   0.00000   0.00000   0.00006   0.00006   3.14151
   D93        3.14125   0.00000   0.00000   0.00006   0.00006   3.14131
   D94       -0.00026   0.00000   0.00000   0.00004   0.00004  -0.00022
   D95       -0.00018   0.00000   0.00000   0.00001   0.00001  -0.00017
   D96        3.14150  -0.00000   0.00000  -0.00002  -0.00002   3.14148
   D97        0.00002   0.00000   0.00000   0.00001   0.00001   0.00002
   D98       -3.14153  -0.00000   0.00000  -0.00002  -0.00002  -3.14154
   D99        3.14153   0.00000   0.00000   0.00003   0.00003   3.14156
   D100      -0.00002   0.00000   0.00000   0.00001   0.00001  -0.00001
         Item               Value     Threshold  Converged?
 Maximum Force            0.022093     0.000450     NO 
 RMS     Force            0.008211     0.000300     NO 
 Maximum Displacement     0.307474     0.001800     NO 
 RMS     Displacement     0.078748     0.001200     NO 
 Predicted change in Energy=-2.290761D-02
 GradGradGradGradGradGradGradGradGradGradGradGradGradGradGradGradGradGrad

 Stoichiometry    C26H28
 Framework group  C1[X(C26H28)]
 Deg. of freedom   156
 Full point group                 C1      NOp   1
 Largest Abelian subgroup         C1      NOp   1
 Largest concise Abelian subgroup C1      NOp   1
                         Standard orientation:                         
 ---------------------------------------------------------------------
 Center     Atomic      Atomic             Coordinates (Angstroms)
 Number     Number       Type             X           Y           Z
 ---------------------------------------------------------------------
      1          6           0      -15.424269    0.265466   -0.001307
      2          6           0      -14.249855   -0.386223   -0.000741
      3          6           0      -12.956279    0.294774   -0.000049
      4          6           0      -11.775426   -0.364781    0.000448
      5          6           0      -10.483350    0.311319    0.001056
      6          6           0       -9.302100   -0.350803    0.001350
      7          6           0       -8.010014    0.322877    0.001788
      8          6           0       -6.829168   -0.341047    0.001732
      9          6           0       -5.536496    0.330668    0.001924
     10          6           0       -4.356353   -0.334922    0.001423
     11          6           0       -3.062959    0.335048    0.001343
     12          6           0       -1.883508   -0.331942    0.000422
     13          6           0       -0.589533    0.336758    0.000129
     14          6           0        0.589485   -0.331052   -0.001022
     15          6           0        1.883687    0.337188   -0.001382
     16          6           0        3.062700   -0.330595   -0.002422
     17          6           0        4.356682    0.338193   -0.002643
     18          6           0        5.536132   -0.328651   -0.003176
     19          6           0        6.829518    0.341641   -0.003063
     20          6           0        8.009681   -0.323520   -0.002784
     21          6           0        9.302367    0.348983   -0.002234
     22          6           0       10.483136   -0.314001   -0.001067
     23          6           0       11.775575    0.361410   -0.000118
     24          6           0       12.956186   -0.298568    0.001739
     25          6           0       14.249928    0.382136    0.002928
     26          6           0       15.424237   -0.269730    0.005092
     27          1           0      -16.364318   -0.277133   -0.001826
     28          1           0      -15.465999    1.350511   -0.001268
     29          1           0      -14.247267   -1.473651   -0.000809
     30          1           0      -12.963428    1.382169    0.000028
     31          1           0      -11.771302   -1.452343    0.000346
     32          1           0      -10.486780    1.398780    0.001200
     33          1           0       -9.299365   -1.438340    0.001160
     34          1           0       -8.011931    1.410358    0.002055
     35          1           0       -6.827873   -1.428573    0.001402
     36          1           0       -5.536927    1.418157    0.002357
     37          1           0       -4.356479   -1.422440    0.000922
     38          1           0       -3.062070    1.422542    0.001943
     39          1           0       -1.884800   -1.419453   -0.000226
     40          1           0       -0.587782    1.424256    0.000826
     41          1           0        0.587590   -1.418555   -0.001726
     42          1           0        1.885579    1.424694   -0.000725
     43          1           0        3.060985   -1.418091   -0.003029
     44          1           0        4.357896    1.425708   -0.002200
     45          1           0        5.535397   -1.416141   -0.003516
     46          1           0        6.829379    1.429166   -0.002982
     47          1           0        8.010519   -1.411001   -0.002733
     48          1           0        9.300496    1.436523   -0.002572
     49          1           0       10.485855   -1.401462   -0.000606
     50          1           0       11.771912    1.448975   -0.000808
     51          1           0       12.963000   -1.385963    0.002513
     52          1           0       14.247533    1.469565    0.002054
     53          1           0       15.465821   -1.354777    0.006053
     54          1           0       16.364349    0.272762    0.005961
 ---------------------------------------------------------------------
 Rotational constants (GHZ):           5.7840161           0.0170631           0.0170129
 Standard basis: 6-31G(d,p) (6D, 7F)
 There are   530 symmetry adapted cartesian basis functions of A   symmetry.
 There are   530 symmetry adapted basis functions of A   symmetry.
   530 basis functions,   924 primitive gaussians,   530 cartesian basis functions
    92 alpha electrons       92 beta electrons
       nuclear repulsion energy      1536.0085541946 Hartrees.
 NAtoms=   54 NActive=   54 NUniq=   54 SFac= 1.00D+00 NAtFMM=   60 NAOKFM=F Big=F
 Integral buffers will be    131072 words long.
 Raffenetti 2 integral format.
 Two-electron integral symmetry is turned on.
 One-electron integrals computed using PRISM.
 NBasis=   530 RedAO= T EigKep=  1.15D-03  NBF=   530
 NBsUse=   530 1.00D-06 EigRej= -1.00D+00 NBFU=   530
 Initial guess from the checkpoint file:  "checkpoint.chk"
 B after Tr=    -0.000000    0.000000    0.000000
         Rot=    1.000000    0.000004   -0.000000   -0.000111 Ang=   0.01 deg.
 ExpMin= 1.61D-01 ExpMax= 3.05D+03 ExpMxC= 4.57D+02 IAcc=3 IRadAn=         5 AccDes= 0.00D+00
 Harris functional with IExCor=  402 and IRadAn=       5 diagonalized for initial guess.
 HarFok:  IExCor=  402 AccDes= 0.00D+00 IRadAn=         5 IDoV= 1 UseB2=F ITyADJ=14
 ICtDFT=  3500011 ScaDFX=  1.000000  1.000000  1.000000  1.000000
 FoFCou: FMM=F IPFlag=           0 FMFlag=      100000 FMFlg1=           0
         NFxFlg=           0 DoJE=T BraDBF=F KetDBF=T FulRan=T
         wScrn=  0.000000 ICntrl=       500 IOpCl=  0 I1Cent=   200000004 NGrid=           0
         NMat0=    1 NMatS0=      1 NMatT0=    0 NMatD0=    1 NMtDS0=    0 NMtDT0=    0
 Petite list used in FoFCou.
 Requested convergence on RMS density matrix=1.00D-08 within 128 cycles.
 Requested convergence on MAX density matrix=1.00D-06.
 Requested convergence on             energy=1.00D-06.
 No special actions if energy rises.
 Integral accuracy reduced to 1.0D-05 until final iterations.
 Initial convergence to 1.0D-05 achieved.  Increase integral accuracy.
 SCF Done:  E(RB3LYP) =  -1007.51338196     A.U. after   12 cycles
            NFock= 12  Conv=0.83D-08     -V/T= 2.0102
 Calling FoFJK, ICntrl=      2127 FMM=F ISym2X=0 I1Cent= 0 IOpClX= 0 NMat=1 NMatS=1 NMatT=0.
 ***** Axes restored to original set *****
 -------------------------------------------------------------------
 Center     Atomic                   Forces (Hartrees/Bohr)
[...]
 000041,0.00000068,0.00000008,-0.00000036,0.00000063,0.00000006,0.00000
 130,0.00000163,-0.00000058,-0.00000111,0.00000277,0.00000006,0.0000044
 7,0.00000311,0.00000090,-0.00001954,0.00000878,-0.00000006,0.00023643,
 0.00000249,0.00001948,-0.00089111,0.00063697,-0.00001669,-0.00167211,0
 .00030885,0.00054395,0.03378634,0.34451535,-0.00000008,0.00000006,-0.0
 0000021,0.00000002,-0.00000013,-0.00000005,0.,0.00000012,-0.00000011,-
 0.00000004,-0.00000013,-0.00000010,0.00000006,0.00000012,-0.00000015,-
 0.00000009,-0.00000013,-0.00000015,0.00000013,0.00000012,-0.00000020,-
 0.00000018,-0.00000013,-0.00000016,0.00000024,0.00000012,-0.00000031,-
 0.00000033,-0.00000014,-0.00000052,0.00000044,0.00000013,-0.00000037,-
 0.00000058,-0.00000005,0.00000043,0.00000079,0.00000012,-0.00000094,-0
 .00000107,-0.00000030,-0.00000498,0.00000148,0.00000020,-0.00000018,-0
 .00000185,0.00000137,0.00001966,0.00000299,-0.00000016,-0.00000734,-0.
 00000451,-0.00000445,-0.00008947,0.00000703,0.00000230,0.00003619,-0.0
 0000452,0.00001510,0.00021088,0.00002146,-0.00003662,-0.00010177,-0.00
 017624,-0.00039171,-0.00585809,0.00006754,0.00116233,0.00483341,0.0020
 1594,0.01719530,-0.04004125,0.00022796,0.00098718,0.00292354,0.0000536
 1,-0.00016809,-0.00153166,-0.00000002,0.,0.00000008,0.,0.,0.00000009,0
 .,0.00000002,0.00000008,0.,0.,0.00000010,0.,0.00000002,0.00000011,0.,0
 .,0.00000013,0.,0.00000003,0.00000016,0.,0.,0.00000019,0.,0.00000003,0
 .00000022,0.,0.00000001,0.00000025,0.,0.00000004,0.00000034,0.,0.00000
 002,0.00000046,0.,0.00000004,0.00000052,0.,0.,0.00000043,0.00000001,0.
 00000006,0.00000098,-0.00000001,0.00000008,0.00000201,0.00000004,0.000
 00005,0.00000163,-0.00000014,-0.00000058,-0.00000787,0.00000011,0.0000
 0003,0.00000366,-0.00000023,0.00000090,0.00001837,0.00000155,-0.000000
 42,0.00000572,-0.00001287,0.00001948,0.00034890,0.00005727,-0.00002856
 ,0.00026862,0.00018799,0.00054416,0.00911500,-0.00228092,-0.01949199,0
 .02619153,0.00000092,-0.00000072,0.00000004,-0.00000030,0.00000149,-0.
 00000009,0.00000008,-0.00000136,0.00000008,0.00000019,0.00000152,-0.00
 000009,-0.00000034,-0.00000133,0.00000008,0.00000059,0.00000156,-0.000
 00010,-0.00000083,-0.00000135,0.00000009,0.00000119,0.00000158,-0.0000
 0010,-0.00000159,-0.00000138,0.00000009,0.00000213,0.00000154,-0.00000
 011,-0.00000284,-0.00000138,0.00000010,0.00000369,0.00000138,-0.000000
 11,-0.00000496,-0.00000130,0.00000011,0.00000639,0.00000095,-0.0000001
 0,-0.00000873,-0.00000098,0.00000011,0.00001130,-0.00000008,-0.0000000
 7,-0.00001530,-0.00000003,0.00000009,0.00002089,-0.00000265,0.,-0.0000
 2729,0.00000132,0.00000002,0.00006063,-0.00001127,0.00000039,-0.000057
 14,-0.00008839,0.00000556,-0.00007404,-0.00008581,0.00000437,0.0016428
 3,0.00143211,-0.00010716,0.00462377,0.02640720,-0.00160347,-0.06180862
 ,-0.03110624,0.00200359,-0.00130743,-0.03192839,0.00196758,0.00000019,
 0.,0.,-0.00000004,0.00000003,0.,-0.00000002,-0.00000023,0.00000001,0.,
 -0.00000002,0.,0.,-0.00000027,0.00000002,-0.00000001,-0.00000004,0.,0.
 ,-0.00000030,0.00000002,-0.00000002,-0.00000007,0.,0.00000001,-0.00000
 034,0.00000002,-0.00000003,-0.00000009,0.,0.00000002,-0.00000038,0.000
 00002,-0.00000005,-0.00000012,0.,0.00000003,-0.00000043,0.00000003,-0.
 00000009,-0.00000017,0.00000001,0.00000007,-0.00000050,0.00000003,-0.0
 0000019,-0.00000025,0.00000002,0.00000012,-0.00000060,0.00000004,-0.00
 000044,-0.00000047,0.00000004,0.00000052,-0.00000101,0.00000007,-0.000
 00334,-0.00000105,0.00000011,0.00000828,-0.00000352,0.00000019,-0.0000
 5098,-0.00001890,0.00000153,0.00004203,-0.00024303,0.00001508,-0.00028
 821,-0.00089580,0.00005725,-0.00388916,0.00242670,-0.00009877,0.064751
 18,0.00001051,-0.00000750,0.00000038,-0.00000435,0.00001628,-0.0000009
 6,0.00000349,-0.00001468,0.00000086,-0.00000143,0.00001751,-0.00000105
 ,0.00000199,-0.00001501,0.00000089,-0.00000067,0.00001926,-0.00000116,
 0.00000156,-0.00001626,0.00000096,-0.00000005,0.00002144,-0.00000130,0
 .00000127,-0.00001807,0.00000107,0.00000072,0.00002435,-0.00000149,0.0
 0000084,-0.00002065,0.00000122,0.00000195,0.00002822,-0.00000173,-0.00
 000003,-0.00002440,0.00000144,0.00000419,0.00003352,-0.00000209,-0.000
 00193,-0.00003017,0.00000177,0.00000879,0.00004112,-0.00000256,-0.0000
 0668,-0.00004003,0.00000242,0.00002032,0.00005266,-0.00000357,-0.00001
 914,-0.00006226,0.00000320,0.00004491,0.00007538,-0.00000390,-0.000011
 87,-0.00008801,0.00000412,0.00042773,0.00055120,-0.00004813,-0.0018138
 8,0.00085387,-0.00013946,-0.00370061,-0.01690210,0.00122532,-0.0324787
 9,-0.32124365,0.01707075,-0.00002790,-0.00960620,0.00089412,0.00000206
 ,0.,0.,-0.00000040,0.00000026,0.,-0.00000023,-0.00000248,0.00000016,0.
 ,-0.00000025,0.00000002,0.00000003,-0.00000297,0.00000018,-0.00000007,
 -0.00000048,0.00000004,0.00000007,-0.00000343,0.00000021,-0.00000008,-
 0.00000071,0.00000005,0.00000012,-0.00000399,0.00000025,-0.00000010,-0
 .00000095,0.00000007,0.00000018,-0.00000467,0.00000030,-0.00000010,-0.
 00000121,0.00000009,0.00000026,-0.00000554,0.00000035,-0.00000007,-0.0
 0000148,0.00000012,0.00000037,-0.00000664,0.00000043,0.00000005,-0.000
 00171,0.00000016,0.00000051,-0.00000806,0.00000054,0.00000052,-0.00000
 166,0.00000019,0.00000044,-0.00000972,0.00000066,0.00000263,-0.0000003
 9,0.00000026,-0.00000210,-0.00001170,0.00000105,0.00003884,0.00000505,
 0.00000009,-0.00025425,0.00010176,0.00000195,0.00104542,0.00068035,-0.
 00003440,0.00261390,-0.00061697,0.00024194,0.03579648,0.34415040,-0.00
 000064,0.00000045,-0.00000020,0.00000026,-0.00000099,0.00000001,-0.000
 00021,0.00000089,-0.00000014,0.00000008,-0.00000107,-0.00000002,-0.000
 00012,0.00000091,-0.00000017,0.00000004,-0.00000118,-0.00000005,-0.000
 00009,0.00000098,-0.00000022,0.,-0.00000131,-0.00000008,-0.00000007,0.
 00000109,-0.00000029,-0.00000006,-0.00000149,-0.00000015,-0.00000004,0
 .00000123,-0.00000041,-0.00000014,-0.00000173,-0.00000022,0.00000003,0
 .00000145,-0.00000059,-0.00000030,-0.00000207,-0.00000054,0.00000017,0
 .00000176,-0.00000116,-0.00000060,-0.00000251,-0.00000030,0.00000050,0
 .00000237,-0.00000085,-0.00000139,-0.00000343,-0.00000421,0.00000126,0
 .00000307,-0.00001149,-0.00000300,-0.00000355,0.00001561,0.00000095,0.
 00000461,-0.00002121,-0.00002662,-0.00004489,-0.00019882,0.00008870,-0
 .00015993,-0.00163798,0.00021315,0.00103543,0.00295495,0.00208641,0.01
 706208,-0.04275963,0.00004278,0.00109532,0.00514318,-0.00000013,0.,0.0
 0000007,0.00000002,-0.00000001,0.00000008,0.00000001,0.00000016,0.0000
 0006,0.,0.00000002,0.00000008,0.,0.00000019,0.00000008,0.,0.00000004,0
 .00000011,0.,0.00000022,0.00000011,0.,0.00000005,0.00000015,0.,0.00000
 025,0.00000015,0.,0.00000007,0.00000021,0.,0.00000030,0.00000022,0.,0.
 00000009,0.00000032,-0.00000001,0.00000036,0.00000034,0.,0.00000012,0.
 00000050,-0.00000002,0.00000044,0.00000054,0.,0.00000016,0.00000091,-0
 .00000003,0.00000055,0.00000097,-0.00000002,0.00000020,0.00000160,-0.0
 0000002,0.00000067,0.00000124,-0.00000011,0.00000028,0.00000421,0.0000
 0011,0.00000105,0.00000534,-0.00000196,0.00000046,0.00001060,0.0000157
 5,0.00000188,0.00010734,-0.00005987,-0.00002215,0.00022132,-0.00011006
 ,0.00024312,0.00365207,-0.00239604,-0.01934341,0.02848697,0.00000169,-
 0.00000116,0.00000006,-0.00000075,0.00000257,-0.00000015,0.00000061,-0
 .00000225,0.00000013,-0.00000035,0.00000271,-0.00000016,0.00000045,-0.
 00000223,0.00000013,-0.00000035,0.00000291,-0.00000017,0.00000052,-0.0
 0000232,0.00000014,-0.00000045,0.00000315,-0.00000019,0.00000070,-0.00
 000245,0.00000014,-0.00000065,0.00000344,-0.00000020,0.00000099,-0.000
 00262,0.00000015,-0.00000100,0.00000380,-0.00000023,0.00000147,-0.0000
 0282,0.00000016,-0.00000157,0.00000420,-0.00000024,0.00000225,-0.00000
 304,0.00000016,-0.00000252,0.00000456,-0.00000030,0.00000343,-0.000003
 27,0.00000017,-0.00000357,0.00000473,-0.00000011,0.00000557,-0.0000030
 6,0.00000009,-0.00000427,0.00000253,-0.00000078,0.00002501,0.00000039,
 0.00000006,0.00003708,0.00007509,-0.00000274,-0.00013646,0.00020558,-0
 .00001199,0.00178940,-0.00183252,0.00005285,-0.00015186,-0.03087134,0.
 00189331,-0.06570028,-0.04035481,0.00264000,0.00000033,-0.00000001,0.,
 -0.00000007,0.00000004,0.,-0.00000004,-0.00000040,0.00000002,0.,-0.000
 00005,0.,0.,-0.00000047,0.00000003,-0.00000002,-0.00000009,0.,0.,-0.00
 000053,0.00000003,-0.00000002,-0.00000013,0.,0.,-0.00000060,0.00000004
 ,-0.00000002,-0.00000018,0.00000001,0.,-0.00000068,0.00000004,-0.00000
 002,-0.00000022,0.00000002,0.,-0.00000077,0.00000005,0.,-0.00000027,0.
 00000002,-0.00000003,-0.00000084,0.00000005,0.00000005,-0.00000029,0.0
 0000002,-0.00000011,-0.00000086,0.00000006,0.00000017,-0.00000021,0.00
 000003,-0.00000040,-0.00000059,0.00000005,0.00000129,0.00000039,-0.000
 00009,-0.00000319,0.00000094,0.,0.00001038,0.00000312,-0.00000015,-0.0
 0005028,0.00003353,-0.00000169,0.00013199,0.00023458,-0.00001285,-0.00
 023320,0.00095116,-0.00005409,-0.00466314,-0.00161093,0.00019580,0.062
 37480,-0.00000093,0.00000049,-0.00000004,0.00000057,-0.00000137,0.0000
 0008,-0.00000068,0.00000102,-0.00000006,0.00000069,-0.00000151,0.00000
 008,-0.00000102,0.00000100,-0.00000006,0.00000121,-0.00000172,0.000000
 09,-0.00000174,0.00000104,-0.00000006,0.00000211,-0.00000201,0.0000001
 0,-0.00000296,0.00000108,-0.00000006,0.00000361,-0.00000243,0.00000011
 ,-0.00000499,0.00000111,-0.00000006,0.00000618,-0.00000307,0.00000011,
 -0.00000853,0.00000110,-0.00000004,0.00001072,-0.00000410,0.00000021,-
 0.00001496,0.00000093,-0.00000003,0.00001916,-0.00000594,-0.00000013,-
 0.00002763,0.00000039,0.00000013,0.00003625,-0.00000951,0.00000176,-0.
 00005686,-0.00000085,-0.00000014,0.00007334,-0.00002288,-0.00000539,-0
 .00013054,-0.00000215,0.00000323,0.00011808,-0.00005817,0.00002213,-0.
 00034585,0.00042978,-0.00002803,0.00221330,0.00097429,-0.00051698,-0.0
 0073760,-0.00977092,0.00087786,-0.04379855,-0.33032525,0.01820500,-0.0
 0000018,0.00000001,0.,0.00000004,0.00000003,0.,0.00000003,0.00000026,-
 0.00000001,0.00000002,0.00000010,0.,0.,0.00000032,-0.00000001,0.000000
 03,0.00000014,0.,0.,0.00000037,-0.00000001,0.00000004,0.00000019,0.,-0
 .00000002,0.00000045,-0.00000002,0.00000006,0.00000026,0.,-0.00000002,
 0.00000056,-0.00000002,0.00000009,0.00000037,0.,-0.00000004,0.00000071
 ,-0.00000002,0.00000014,0.00000053,0.,-0.00000007,0.00000095,-0.000000
 02,0.00000026,0.00000080,-0.00000002,-0.00000015,0.00000137,-0.0000000
 1,0.00000055,0.00000134,0.00000007,-0.00000035,0.00000227,-0.00000002,
 0.00000156,0.00000253,-0.00000071,-0.00000095,0.00000469,-0.00000002,0
 .00000496,0.00000410,0.00000068,-0.00001467,0.00000796,-0.00000020,0.0
 0022048,-0.00001576,0.00001997,-0.00097029,0.00054543,-0.00000924,-0.0
 0190868,0.00087302,0.00062129,0.05046853,0.34949558,0.00000004,-0.0000
 0003,-0.00000019,-0.00000003,0.00000006,-0.00000006,0.00000004,-0.0000
 0005,-0.00000009,-0.00000004,0.00000007,-0.00000010,0.00000006,-0.0000
 0005,-0.00000013,-0.00000007,0.00000008,-0.00000013,0.00000010,-0.0000
 0006,-0.00000017,-0.00000013,0.00000009,-0.00000020,0.00000017,-0.0000
 0006,-0.00000023,-0.00000022,0.00000011,-0.00000021,0.00000029,-0.0000
 0007,-0.00000035,-0.00000037,0.00000012,-0.00000063,0.00000050,-0.0000
 0007,-0.00000042,-0.00000063,0.00000025,0.00000045,0.00000088,-0.00000
 010,-0.00000107,-0.00000118,-0.00000004,-0.00000606,0.00000164,-0.0000
 0003,-0.00000040,-0.00000202,0.00000196,0.00002342,0.00000334,-0.00000
 048,-0.00000909,-0.00000506,-0.00000494,-0.00010414,0.00000796,0.00000
 241,0.00003761,-0.00000533,0.00002240,0.00031962,0.00002128,-0.0000315
 1,-0.00006921,-0.00019127,-0.00049146,-0.00733165,0.00007511,0.0010679
 1,0.00463625,0.00284779,0.01818329,-0.03430014,0.,0.,0.00000008,0.,0.,
 0.00000009,0.,0.,0.00000008,0.,0.,0.00000009,0.,0.,0.00000011,0.,0.,0.
 00000012,0.,-0.00000001,0.00000014,0.,0.,0.00000016,0.,-0.00000001,0.0
 0000019,0.,0.,0.00000023,0.,-0.00000001,0.00000027,0.,0.,0.00000030,0.
 ,-0.00000001,0.00000040,0.,0.,0.00000055,0.,-0.00000001,0.00000063,-0.
 00000001,-0.00000001,0.00000053,0.00000002,0.,0.00000117,-0.00000002,0
 .00000008,0.00000259,0.00000004,-0.00000001,0.00000196,-0.00000016,-0.
 00000070,-0.00000896,0.00000010,-0.00000003,0.00000421,-0.00000026,0.0
 0000070,0.00001592,0.00000122,-0.00000050,0.00000321,-0.00001200,0.000
 01988,0.00033718,0.00006185,-0.00002136,0.00029170,0.00021376,0.000619
 41,0.01093161,-0.00330149,-0.02009483,0.02296499,-0.00000862,0.0000060
 5,-0.00000031,0.00000367,-0.00001332,0.00000078,-0.00000302,0.00001186
 ,-0.00000070,0.00000145,-0.00001429,0.00000085,-0.00000200,0.00001203,
 -0.00000071,0.00000111,-0.00001566,0.00000094,-0.00000199,0.00001291,-
 0.00000077,0.00000107,-0.00001737,0.00000104,-0.00000233,0.00001416,-0
 .00000084,0.00000123,-0.00001964,0.00000117,-0.00000296,0.00001588,-0.
 00000094,0.00000160,-0.00002261,0.00000136,-0.00000401,0.00001825,-0.0
 0000108,0.00000228,-0.00002663,0.00000157,-0.00000586,0.00002159,-0.00
 000126,0.00000341,-0.00003231,0.00000201,-0.00000971,0.00002700,-0.000
 00160,0.00000376,-0.00004226,0.00000210,-0.00002126,0.00004131,-0.0000
 0230,-0.00001229,-0.00007640,0.00000663,-0.00009267,0.00013948,-0.0000
 0830,-0.00025654,-0.00036302,0.00001438,-0.00063043,0.00133533,-0.0000
 7515,-0.00263283,-0.00422476,0.00034478,-0.01876231,0.02037715,-0.0010
 8484,-0.23870183,0.13662186,-0.00693443,-0.00000170,0.00000002,0.,0.00
 000033,-0.00000018,0.,0.00000019,0.00000206,-0.00000013,0.00000002,0.0
 0000026,-0.00000002,-0.00000002,0.00000246,-0.00000015,0.00000008,0.00
 000046,-0.00000003,-0.00000006,0.00000285,-0.00000017,0.00000010,0.000
 00067,-0.00000004,-0.00000010,0.00000331,-0.00000020,0.00000013,0.0000
 0091,-0.00000005,-0.00000015,0.00000388,-0.00000023,0.00000016,0.00000
 120,-0.00000007,-0.00000022,0.00000460,-0.00000027,0.00000021,0.000001
 54,-0.00000009,-0.00000031,0.00000554,-0.00000033,0.00000028,0.0000019
 7,-0.00000011,-0.00000044,0.00000681,-0.00000040,0.00000045,0.00000247
 ,-0.00000017,-0.00000059,0.00000862,-0.00000050,0.00000084,0.00000265,
 -0.00000002,0.00000073,0.00001160,-0.00000070,0.00000134,-0.00000129,-
 0.00000040,0.00001599,0.00001725,-0.00000098,0.00000527,-0.00007339,0.
 00000531,0.00013007,0.00012523,-0.00001017,0.00102806,-0.00009450,-0.0
 0004451,0.00656642,-0.00515374,0.00028408,0.25338402,0.00000018,0.,-0.
 00000001,-0.00000024,0.00000011,0.,0.00000029,0.00000002,0.,-0.0000004
 8,0.00000001,0.,0.00000060,0.00000017,-0.00000002,-0.00000092,-0.00000
 011,0.,0.00000114,0.00000038,-0.00000004,-0.00000165,-0.00000028,0.000
 00002,0.00000204,0.00000067,-0.00000007,-0.00000287,-0.00000051,0.0000
 0003,0.00000354,0.00000112,-0.00000010,-0.00000492,-0.00000085,0.00000
 011,0.00000612,0.00000187,-0.00000018,-0.00000852,-0.00000142,-0.00000
 007,0.00001074,0.00000324,-0.00000025,-0.00001519,-0.00000234,0.000001
 02,0.00001940,0.00000626,-0.00000077,-0.00002897,-0.00000509,-0.000003
 57,0.00003654,0.00001551,-0.00000062,-0.00006758,-0.00001786,0.0000200
 9,0.00006276,0.00006515,-0.00000881,-0.00028089,-0.00012794,-0.0000779
 7,-0.00017320,0.00079867,-0.00003324,-0.00210626,-0.00090527,0.0007687
 5,-0.01254225,0.01066046,-0.00031221,0.14113150,-0.16448245,0.00715427
 ,0.00000002,-0.00000002,0.,-0.00000001,0.00000001,0.,0.,0.,0.,0.,0.,0.
 ,-0.00000002,0.,0.,0.,-0.00000001,0.,-0.00000002,0.00000003,0.,0.,-0.0
 0000002,0.,-0.00000004,0.00000007,0.,0.,-0.00000002,0.00000001,-0.0000
 0006,0.00000013,0.,0.00000002,-0.00000002,0.00000002,-0.00000010,0.000
 00023,0.,0.00000004,-0.00000002,0.00000001,-0.00000019,0.00000041,0.,0
 .00000009,0.,0.00000008,-0.00000035,0.00000074,0.,0.00000021,0.0000000
 4,-0.00000014,-0.00000090,0.00000152,0.00000002,0.00000067,0.00000030,
 0.00000135,-0.00000167,0.00000339,-0.00000016,0.00000015,-0.00000164,-
 0.00000439,-0.00000656,0.00001054,0.00000093,0.00008508,-0.00000848,0.
 00000875,-0.00037653,0.00039633,-0.00003867,0.00023506,0.00122837,-0.0
 0049388,0.02269406,-0.01212894,0.00072768,-0.14866987,0.16448759,0.000
 00004,-0.00000005,-0.00000016,0.,0.00000007,-0.00000005,0.,-0.00000008
 ,-0.00000008,0.00000002,0.00000008,-0.00000009,-0.00000002,-0.00000009
 ,-0.00000010,0.00000005,0.00000010,-0.00000012,-0.00000006,-0.00000011
 ,-0.00000013,0.00000009,0.00000012,-0.00000012,-0.00000011,-0.00000014
 ,-0.00000019,0.00000016,0.00000013,-0.00000037,-0.00000020,-0.00000018
 ,-0.00000021,0.00000029,0.00000022,0.00000040,-0.00000035,-0.00000026,
 -0.00000053,0.00000048,0.00000004,-0.00000355,-0.00000061,-0.00000032,
 0.00000024,0.00000098,0.00000112,0.00001282,-0.00000114,-0.00000082,-0
 .00000440,0.00000130,-0.00000349,-0.00006709,-0.00000201,-0.00000065,0
 .00000919,0.00000610,0.00002014,0.00030670,-0.00000367,-0.00000929,-0.
 00007371,0.00000942,-0.00007745,-0.00144486,0.00001587,-0.00004275,0.0
 0023215,0.00021695,0.00078210,0.01156676,0.00090144,-0.00051983,0.0042
 0072,-0.00720653,0.00718271,-0.03154711,0.,0.,0.00000006,0.,0.,0.00000
 008,0.,0.,0.00000007,0.,0.,0.00000008,0.,-0.00000001,0.00000009,0.,0.,
 0.00000010,0.,-0.00000001,0.00000011,0.,0.,0.00000014,0.,-0.00000002,0
 .00000015,0.,0.,0.00000017,0.,-0.00000002,0.00000021,0.,0.00000001,0.0
 0000030,0.,-0.00000003,0.00000029,0.,0.,0.00000019,0.00000002,-0.00000
 003,0.00000047,0.,0.00000007,0.00000140,0.00000003,-0.00000005,0.00000
 062,-0.00000003,-0.00000015,-0.00000225,0.00000007,-0.00000004,0.00000
 183,0.00000010,0.00000134,0.00002271,0.00000010,-0.00000024,0.00000063
 ,-0.00000049,-0.00000438,-0.00007414,0.00000045,0.00000078,0.00002515,
 -0.00000425,0.00000975,0.00014495,0.00002011,-0.00004184,-0.00028160,-
 0.00006439,-0.00049180,-0.00690222,-0.00139619,0.00090332,0.00225778,0
 .00750596,-0.00770802,0.02161652\\0.00001793,0.00000577,-0.00000047,0.
 00000548,-0.00000479,0.00000024,-0.00001434,0.00000708,-0.00000034,0.0
 0001217,-0.00000616,0.00000029,-0.00001595,0.00000729,-0.00000035,0.00
 001036,-0.00000335,0.00000012,-0.00000708,0.00000541,-0.00000030,0.000
 00135,-0.00000315,0.00000016,0.00000580,0.00000577,-0.00000042,-0.0000
 1018,-0.00000404,0.00000028,0.00001607,0.00000597,-0.00000049,-0.00001
 847,-0.00000500,0.00000040,0.00002066,0.00000572,-0.00000048,-0.000020
 62,-0.00000570,0.00000047,0.00001842,0.00000503,-0.00000040,-0.0000159
 6,-0.00000598,0.00000049,0.00001006,0.00000407,-0.00000027,-0.00000568
 ,-0.00000580,0.00000043,-0.00000148,0.00000317,-0.00000013,0.00000716,
 -0.00000544,0.00000033,-0.00001045,0.00000335,-0.00000009,0.00001599,-
 0.00000730,0.00000038,-0.00001221,0.00000613,-0.00000027,0.00001437,-0
 .00000707,0.00000034,-0.00000548,0.00000478,-0.00000022,-0.00001794,-0
 .00000576,0.00000049,-0.00000251,-0.00000311,0.00000020,-0.00000525,-0
 .00000147,0.00000013,-0.00000326,0.00000117,-0.00000004,0.00000399,-0.
 00000346,0.00000019,-0.00000436,0.00000358,-0.00000018,0.00000380,-0.0
 0000381,0.00000022,-0.00000458,0.00000249,-0.00000010,0.00000333,-0.00
 000314,0.00000019,-0.00000320,0.00000212,-0.00000008,0.00000205,-0.000
 00282,0.00000019,-0.00000171,0.00000205,-0.00000008,0.00000096,-0.0000
 0256,0.00000018,-0.00000071,0.00000216,-0.00000010,0.00000045,-0.00000
 236,0.00000015,-0.00000045,0.00000233,-0.00000014,0.00000071,-0.000002
 18,0.00000011,-0.00000096,0.00000255,-0.00000017,0.00000171,-0.0000020
 6,0.00000007,-0.00000205,0.00000281,-0.00000020,0.00000320,-0.00000212
 ,0.00000005,-0.00000333,0.00000315,-0.00000022,0.00000459,-0.00000248,
 0.00000007,-0.00000381,0.00000382,-0.00000025,0.00000437,-0.00000357,0
 .00000016,-0.00000400,0.00000347,-0.00000021,0.00000326,-0.00000117,0.
 00000003,0.00000525,0.00000147,-0.00000014,0.00000252,0.00000311,-0.00
 000021\\\@


 HE THAT WALD REACHE THE SWEITE ROSE
 SULD NOW AND THEN BE SCRATCHED WT THE SCHARPE BREERES.
 -- PROVERBS AND REASONS OF THE YEAR 1585
           AS REPRINTED IN PAISLEY MAGAZINE 1828.
 Job cpu time:       0 days  2 hours 57 minutes 10.4 seconds.
 Elapsed time:       0 days  1 hours 28 minutes 35.4 seconds.
 File lengths (MBytes):  RWF=   1519 Int=      0 D2E=      0 Chk=     38 Scr=      1
 Normal termination of Gaussian 16 at Thu Nov  9 21:46:22 2023.
