 Entering Gaussian System, Link 0=g16
 Input=./com/14.com
 Output=./log/14.log
 Initial command:
 /home/shohei/gaussian/g16/l1.exe "/home/shohei/gaussian/scratch/Gau-12559.inp" -scrdir="/home/shohei/gaussian/scratch/"
 Entering Link 1 = /home/shohei/gaussian/g16/l1.exe PID=     12561.
  
 Copyright (c) 1988-2017, Gaussian, Inc.  All Rights Reserved.
  
 This is part of the Gaussian(R) 16 program.  It is based on
 the Gaussian(R) 09 system (copyright 2009, Gaussian, Inc.),
 the Gaussian(R) 03 system (copyright 2003, Gaussian, Inc.),
 the Gaussian(R) 98 system (copyright 1998, Gaussian, Inc.),
 the Gaussian(R) 94 system (copyright 1995, Gaussian, Inc.),
 the Gaussian 92(TM) system (copyright 1992, Gaussian, Inc.),
 the Gaussian 90(TM) system (copyright 1990, Gaussian, Inc.),
 the Gaussian 88(TM) system (copyright 1988, Gaussian, Inc.),
 the Gaussian 86(TM) system (copyright 1986, Carnegie Mellon
 University), and the Gaussian 82(TM) system (copyright 1983,
 Carnegie Mellon University). Gaussian is a federally registered
 trademark of Gaussian, Inc.
  
 This software contains proprietary and confidential information,
 including trade secrets, belonging to Gaussian, Inc.
  
 This software is provided under written license and may be
 used, copied, transmitted, or stored only in accord with that
 written license.
  
 The following legend is applicable only to US Government
 contracts under FAR:
  
                    RESTRICTED RIGHTS LEGEND
  
 Use, reproduction and disclosure by the US Government is
 subject to restrictions as set forth in subparagraphs (a)
 and (c) of the Commercial Computer Software - Restricted
 Rights clause in FAR 52.227-19.
  
 Gaussian, Inc.
 340 Quinnipiac St., Bldg. 40, Wallingford CT 06492
  
  
 ---------------------------------------------------------------
 Warning -- This program may not be used in any manner that
 competes with the business of Gaussian, Inc. or will provide
 assistance to any competitor of Gaussian, Inc.  The licensee
 of this program is prohibited from giving any competitor of
 Gaussian, Inc. access to this program.  By using this program,
 the user acknowledges that Gaussian, Inc. is engaged in the
 business of creating and licensing software in the field of
 computational chemistry and represents and warrants to the
 licensee that it is not a competitor of Gaussian, Inc. and that
 it will not use this program in any manner prohibited above.
 ---------------------------------------------------------------
  

 Cite this work as:
 Gaussian 16, Revision B.01,
 M. J. Frisch, G. W. Trucks, H. B. Schlegel, G. E. Scuseria, 
 M. A. Robb, J. R. Cheeseman, G. Scalmani, V. Barone, 
 G. A. Petersson, H. Nakatsuji, X. Li, M. Caricato, A. V. Marenich, 
 J. Bloino, B. G. Janesko, R. Gomperts, B. Mennucci, H. P. Hratchian, 
 J. V. Ortiz, A. F. Izmaylov, J. L. Sonnenberg, D. Williams-Young, 
 F. Ding, F. Lipparini, F. Egidi, J. Goings, B. Peng, A. Petrone, 
 T. Henderson, D. Ranasinghe, V. G. Zakrzewski, J. Gao, N. Rega, 
 G. Zheng, W. Liang, M. Hada, M. Ehara, K. Toyota, R. Fukuda, 
 J. Hasegawa, M. Ishida, T. Nakajima, Y. Honda, O. Kitao, H. Nakai, 
 T. Vreven, K. Throssell, J. A. Montgomery, Jr., J. E. Peralta, 
 F. Ogliaro, M. J. Bearpark, J. J. Heyd, E. N. Brothers, K. N. Kudin, 
 V. N. Staroverov, T. A. Keith, R. Kobayashi, J. Normand, 
 K. Raghavachari, A. P. Rendell, J. C. Burant, S. S. Iyengar, 
 J. Tomasi, M. Cossi, J. M. Millam, M. Klene, C. Adamo, R. Cammi, 
 J. W. Ochterski, R. L. Martin, K. Morokuma, O. Farkas, 
 J. B. Foresman, and D. J. Fox, Gaussian, Inc., Wallingford CT, 2016.
 
 ******************************************
 Gaussian 16:  EM64L-G16RevB.01 20-Dec-2017
                 9-Nov-2023 
 ******************************************
 %chk=checkpoint.chk
 %nprocshared=4
 Will use up to    4 processors via shared memory.
 ---------------------------
 # B3LYP/6-31G(d,p) OPT FREQ
 ---------------------------
 1/18=20,19=15,26=3,38=1/1,3;
 2/9=110,12=2,17=6,18=5,40=1/2;
 3/5=1,6=6,7=101,11=2,25=1,30=1,71=1,74=-5/1,2,3;
 4//1;
 5/5=2,38=5/2;
 6/7=2,8=2,9=2,10=2,28=1/1;
 7//1,2,3,16;
 1/18=20,19=15,26=3/3(2);
 2/9=110/2;
 99//99;
 2/9=110/2;
 3/5=1,6=6,7=101,11=2,25=1,30=1,71=1,74=-5/1,2,3;
 4/5=5,16=3,69=1/1;
 5/5=2,38=5/2;
 7//1,2,3,16;
 1/18=20,19=15,26=3/3(-5);
 2/9=110/2;
 6/7=2,8=2,9=2,10=2,19=2,28=1/1;
 99/9=1/99;
 ------
 14poly
 ------
 Symbolic Z-matrix:
 Charge =  0 Multiplicity = 1
 C                    -2.37878   1.11595   0.01823 
 C                    -1.16344   1.66681  -0.02285 
 C                     0.05501   0.83249   0.0194 
 C                     1.2724    1.38978  -0.02214 
 C                     2.49199   0.55622   0.02002 
 C                     3.709     1.11445  -0.02168 
 C                     4.92946   0.28215   0.02034 
 C                     6.14569   0.84206  -0.0215 
 C                     7.36758   0.01187   0.0204 
 C                     8.58267   0.57427  -0.02146 
 C                     9.80648  -0.25307   0.02038 
 C                     11.02016   0.31244  -0.0213 
 C                     12.24616  -0.5116    0.02057 
 C                     13.45834   0.05721  -0.02077 
 C                     14.68644  -0.76363   0.02118 
 C                     15.8973  -0.19195  -0.01982 
 C                     17.12703  -1.01033   0.02217 
 C                     18.33702  -0.43678  -0.01872 
 C                     19.56756  -1.25392   0.02316 
 C                     20.77728  -0.67983  -0.01799 
 C                     22.00778  -1.49707   0.02359 
 C                     23.21776  -0.92364  -0.01822 
 C                     24.4476  -1.74197   0.02293 
 C                     25.65814  -1.16986  -0.01972 
 C                     26.88712  -1.98956   0.02101 
 C                     28.09817  -1.41874  -0.02233 
 C                     29.32579  -2.23962   0.01815 
 C                     30.53498  -1.67557  -0.02514 
 H                    -3.26123   1.74679  -0.01398 
 H                    -2.50598   0.03937   0.08385 
 H                    -1.07787   2.7482   -0.0885 
 H                    -0.04298  -0.24879   0.08514 
 H                     1.36924   2.47118  -0.08788 
 H                     2.39545  -0.52516   0.08579 
 H                     3.80504   2.1959   -0.08746 
 H                     4.83427  -0.79934   0.08614 
 H                     6.24008   1.92366  -0.08728 
 H                     7.27444  -1.0698    0.08616 
 H                     8.67473   1.65607  -0.08717 
 H                     9.71598  -1.33497   0.08602 
 H                     11.10943   1.39449  -0.08684 
 H                     12.15854  -1.59375   0.08599 
 H                     13.54478   1.1395   -0.08608 
 H                     14.60144  -1.84601   0.08636 
 H                     15.98139   0.89053  -0.08493 
 H                     17.04388  -2.09287   0.08718 
 H                     18.4197   0.64581  -0.08374 
 H                     19.48518  -2.33652   0.08819 
 H                     20.85969   0.40278  -0.08312 
 H                     21.92507  -2.57963   0.08883 
 H                     23.30086   0.1589   -0.08364 
 H                     24.36388  -2.82443   0.08853 
 H                     25.74236  -0.08743  -0.0855 
 H                     26.80248  -3.07196   0.08695 
 H                     28.1841  -0.33645  -0.08841 
 H                     29.25215  -3.32186   0.08421 
 H                     30.65037  -0.59771  -0.09131 
 H                     31.42428  -2.2968    0.00573 
 

 GradGradGradGradGradGradGradGradGradGradGradGradGradGradGradGradGradGrad
 Berny optimization.
 Initialization pass.
                           ----------------------------
                           !    Initial Parameters    !
                           ! (Angstroms and Degrees)  !
 --------------------------                            --------------------------
 ! Name  Definition              Value          Derivative Info.                !
 --------------------------------------------------------------------------------
 ! R1    R(1,2)                  1.335          estimate D2E/DX2                !
 ! R2    R(1,29)                 1.0852         estimate D2E/DX2                !
 ! R3    R(1,30)                 1.0861         estimate D2E/DX2                !
 ! R4    R(2,3)                  1.4773         estimate D2E/DX2                !
 ! R5    R(2,31)                 1.0868         estimate D2E/DX2                !
 ! R6    R(3,4)                  1.3395         estimate D2E/DX2                !
 ! R7    R(3,32)                 1.0877         estimate D2E/DX2                !
 ! R8    R(4,5)                  1.4778         estimate D2E/DX2                !
 ! R9    R(4,33)                 1.0877         estimate D2E/DX2                !
 ! R10   R(5,6)                  1.3396         estimate D2E/DX2                !
 ! R11   R(5,34)                 1.0877         estimate D2E/DX2                !
 ! R12   R(6,7)                  1.4778         estimate D2E/DX2                !
 ! R13   R(6,35)                 1.0877         estimate D2E/DX2                !
 ! R14   R(7,8)                  1.3396         estimate D2E/DX2                !
 ! R15   R(7,36)                 1.0877         estimate D2E/DX2                !
 ! R16   R(8,9)                  1.4778         estimate D2E/DX2                !
 ! R17   R(8,37)                 1.0877         estimate D2E/DX2                !
 ! R18   R(9,10)                 1.3396         estimate D2E/DX2                !
 ! R19   R(9,38)                 1.0877         estimate D2E/DX2                !
 ! R20   R(10,11)                1.4778         estimate D2E/DX2                !
 ! R21   R(10,39)                1.0877         estimate D2E/DX2                !
 ! R22   R(11,12)                1.3396         estimate D2E/DX2                !
 ! R23   R(11,40)                1.0877         estimate D2E/DX2                !
 ! R24   R(12,13)                1.4778         estimate D2E/DX2                !
 ! R25   R(12,41)                1.0877         estimate D2E/DX2                !
 ! R26   R(13,14)                1.3396         estimate D2E/DX2                !
 ! R27   R(13,42)                1.0877         estimate D2E/DX2                !
 ! R28   R(14,15)                1.4778         estimate D2E/DX2                !
 ! R29   R(14,43)                1.0877         estimate D2E/DX2                !
 ! R30   R(15,16)                1.3397         estimate D2E/DX2                !
 ! R31   R(15,44)                1.0877         estimate D2E/DX2                !
 ! R32   R(16,17)                1.4777         estimate D2E/DX2                !
 ! R33   R(16,45)                1.0877         estimate D2E/DX2                !
 ! R34   R(17,18)                1.3397         estimate D2E/DX2                !
 ! R35   R(17,46)                1.0877         estimate D2E/DX2                !
 ! R36   R(18,19)                1.4777         estimate D2E/DX2                !
 ! R37   R(18,47)                1.0877         estimate D2E/DX2                !
 ! R38   R(19,20)                1.3397         estimate D2E/DX2                !
 ! R39   R(19,48)                1.0877         estimate D2E/DX2                !
 ! R40   R(20,21)                1.4778         estimate D2E/DX2                !
 ! R41   R(20,49)                1.0877         estimate D2E/DX2                !
 ! R42   R(21,22)                1.3396         estimate D2E/DX2                !
 ! R43   R(21,50)                1.0877         estimate D2E/DX2                !
 ! R44   R(22,23)                1.4778         estimate D2E/DX2                !
 ! R45   R(22,51)                1.0877         estimate D2E/DX2                !
 ! R46   R(23,24)                1.3396         estimate D2E/DX2                !
 ! R47   R(23,52)                1.0877         estimate D2E/DX2                !
 ! R48   R(24,25)                1.4778         estimate D2E/DX2                !
 ! R49   R(24,53)                1.0877         estimate D2E/DX2                !
 ! R50   R(25,26)                1.3395         estimate D2E/DX2                !
 ! R51   R(25,54)                1.0877         estimate D2E/DX2                !
 ! R52   R(26,27)                1.4773         estimate D2E/DX2                !
 ! R53   R(26,55)                1.0877         estimate D2E/DX2                !
 ! R54   R(27,28)                1.335          estimate D2E/DX2                !
 ! R55   R(27,56)                1.0868         estimate D2E/DX2                !
 ! R56   R(28,57)                1.086          estimate D2E/DX2                !
 ! R57   R(28,58)                1.0852         estimate D2E/DX2                !
 ! A1    A(2,1,29)             119.9671         estimate D2E/DX2                !
 ! A2    A(2,1,30)             121.1659         estimate D2E/DX2                !
 ! A3    A(29,1,30)            118.867          estimate D2E/DX2                !
 ! A4    A(1,2,3)              121.1265         estimate D2E/DX2                !
 ! A5    A(1,2,31)             118.9559         estimate D2E/DX2                !
 ! A6    A(3,2,31)             119.9176         estimate D2E/DX2                !
 ! A7    A(2,3,4)              120.9114         estimate D2E/DX2                !
 ! A8    A(2,3,32)             119.2648         estimate D2E/DX2                !
 ! A9    A(4,3,32)             119.8238         estimate D2E/DX2                !
 ! A10   A(3,4,5)              120.9611         estimate D2E/DX2                !
 ! A11   A(3,4,33)             119.7632         estimate D2E/DX2                !
 ! A12   A(5,4,33)             119.2758         estimate D2E/DX2                !
 ! A13   A(4,5,6)              120.9176         estimate D2E/DX2                !
 ! A14   A(4,5,34)             119.2916         estimate D2E/DX2                !
 ! A15   A(6,5,34)             119.7908         estimate D2E/DX2                !
 ! A16   A(5,6,7)              120.9774         estimate D2E/DX2                !
 ! A17   A(5,6,35)             119.7643         estimate D2E/DX2                !
 ! A18   A(7,6,35)             119.2583         estimate D2E/DX2                !
 ! A19   A(6,7,8)              120.8981         estimate D2E/DX2                !
 ! A20   A(6,7,36)             119.3033         estimate D2E/DX2                !
 ! A21   A(8,7,36)             119.7986         estimate D2E/DX2                !
 ! A22   A(7,8,9)              120.9968         estimate D2E/DX2                !
 ! A23   A(7,8,37)             119.7562         estimate D2E/DX2                !
 ! A24   A(9,8,37)             119.247          estimate D2E/DX2                !
 ! A25   A(8,9,10)             120.8797         estimate D2E/DX2                !
 ! A26   A(8,9,38)             119.3133         estimate D2E/DX2                !
 ! A27   A(10,9,38)            119.807          estimate D2E/DX2                !
 ! A28   A(9,10,11)            121.0132         estimate D2E/DX2                !
 ! A29   A(9,10,39)            119.75           estimate D2E/DX2                !
 ! A30   A(11,10,39)           119.2368         estimate D2E/DX2                !
 ! A31   A(10,11,12)           120.8676         estimate D2E/DX2                !
 ! A32   A(10,11,40)           119.3192         estimate D2E/DX2                !
 ! A33   A(12,11,40)           119.8132         estimate D2E/DX2                !
 ! A34   A(11,12,13)           121.0208         estimate D2E/DX2                !
 ! A35   A(11,12,41)           119.7481         estimate D2E/DX2                !
 ! A36   A(13,12,41)           119.2311         estimate D2E/DX2                !
 ! A37   A(12,13,14)           120.8669         estimate D2E/DX2                !
 ! A38   A(12,13,42)           119.3181         estimate D2E/DX2                !
 ! A39   A(14,13,42)           119.8149         estimate D2E/DX2                !
 ! A40   A(13,14,15)           121.0149         estimate D2E/DX2                !
 ! A41   A(13,14,43)           119.7523         estimate D2E/DX2                !
 ! A42   A(15,14,43)           119.2328         estimate D2E/DX2                !
 ! A43   A(14,15,16)           120.8807         estimate D2E/DX2                !
 ! A44   A(14,15,44)           119.3088         estimate D2E/DX2                !
 ! A45   A(16,15,44)           119.8104         estimate D2E/DX2                !
 ! A46   A(15,16,17)           120.9947         estimate D2E/DX2                !
 ! A47   A(15,16,45)           119.7623         estimate D2E/DX2                !
 ! A48   A(17,16,45)           119.243          estimate D2E/DX2                !
 ! A49   A(16,17,18)           120.907          estimate D2E/DX2                !
 ! A50   A(16,17,46)           119.293          estimate D2E/DX2                !
 ! A51   A(18,17,46)           119.8            estimate D2E/DX2                !
 ! A52   A(17,18,19)           120.9648         estimate D2E/DX2                !
 ! A53   A(17,18,47)           119.7756         estimate D2E/DX2                !
 ! A54   A(19,18,47)           119.2596         estimate D2E/DX2                !
 ! A55   A(18,19,20)           120.9382         estimate D2E/DX2                !
 ! A56   A(18,19,48)           119.2753         estimate D2E/DX2                !
 ! A57   A(20,19,48)           119.7865         estimate D2E/DX2                !
 ! A58   A(19,20,21)           120.9347         estimate D2E/DX2                !
 ! A59   A(19,20,49)           119.788          estimate D2E/DX2                !
 ! A60   A(21,20,49)           119.2773         estimate D2E/DX2                !
 ! A61   A(20,21,22)           120.9638         estimate D2E/DX2                !
 ! A62   A(20,21,50)           119.2617         estimate D2E/DX2                !
 ! A63   A(22,21,50)           119.7745         estimate D2E/DX2                !
 ! A64   A(21,22,23)           120.9152         estimate D2E/DX2                !
 ! A65   A(21,22,51)           119.795          estimate D2E/DX2                !
 ! A66   A(23,22,51)           119.2898         estimate D2E/DX2                !
 ! A67   A(22,23,24)           120.9747         estimate D2E/DX2                !
 ! A68   A(22,23,52)           119.257          estimate D2E/DX2                !
 ! A69   A(24,23,52)           119.7682         estimate D2E/DX2                !
 ! A70   A(23,24,25)           120.9129         estimate D2E/DX2                !
 ! A71   A(23,24,53)           119.795          estimate D2E/DX2                !
 ! A72   A(25,24,53)           119.2921         estimate D2E/DX2                !
 ! A73   A(24,25,26)           120.97           estimate D2E/DX2                !
 ! A74   A(24,25,54)           119.2695         estimate D2E/DX2                !
 ! A75   A(26,25,54)           119.7605         estimate D2E/DX2                !
 ! A76   A(25,26,27)           120.9032         estimate D2E/DX2                !
 ! A77   A(25,26,55)           119.8281         estimate D2E/DX2                !
 ! A78   A(27,26,55)           119.2687         estimate D2E/DX2                !
 ! A79   A(26,27,28)           121.132          estimate D2E/DX2                !
 ! A80   A(26,27,56)           119.9141         estimate D2E/DX2                !
 ! A81   A(28,27,56)           118.9539         estimate D2E/DX2                !
 ! A82   A(27,28,57)           121.1676         estimate D2E/DX2                !
 ! A83   A(27,28,58)           119.9644         estimate D2E/DX2                !
 ! A84   A(57,28,58)           118.868          estimate D2E/DX2                !
 ! D1    D(29,1,2,3)          -179.9993         estimate D2E/DX2                !
 ! D2    D(29,1,2,31)           -0.0001         estimate D2E/DX2                !
 ! D3    D(30,1,2,3)             0.0002         estimate D2E/DX2                !
 ! D4    D(30,1,2,31)          179.9994         estimate D2E/DX2                !
 ! D5    D(1,2,3,4)            179.997          estimate D2E/DX2                !
 ! D6    D(1,2,3,32)            -0.0016         estimate D2E/DX2                !
 ! D7    D(31,2,3,4)            -0.0022         estimate D2E/DX2                !
 ! D8    D(31,2,3,32)          179.9992         estimate D2E/DX2                !
 ! D9    D(2,3,4,5)           -179.9978         estimate D2E/DX2                !
 ! D10   D(2,3,4,33)             0.0004         estimate D2E/DX2                !
 ! D11   D(32,3,4,5)             0.0008         estimate D2E/DX2                !
 ! D12   D(32,3,4,33)          179.999          estimate D2E/DX2                !
 ! D13   D(3,4,5,6)            179.995          estimate D2E/DX2                !
 ! D14   D(3,4,5,34)            -0.0033         estimate D2E/DX2                !
 ! D15   D(33,4,5,6)            -0.0032         estimate D2E/DX2                !
 ! D16   D(33,4,5,34)          179.9985         estimate D2E/DX2                !
 ! D17   D(4,5,6,7)           -179.9977         estimate D2E/DX2                !
 ! D18   D(4,5,6,35)             0.001          estimate D2E/DX2                !
 ! D19   D(34,5,6,7)             0.0005         estimate D2E/DX2                !
 ! D20   D(34,5,6,35)          179.9992         estimate D2E/DX2                !
 ! D21   D(5,6,7,8)            179.9976         estimate D2E/DX2                !
 ! D22   D(5,6,7,36)            -0.0023         estimate D2E/DX2                !
 ! D23   D(35,6,7,8)            -0.0011         estimate D2E/DX2                !
 ! D24   D(35,6,7,36)          179.999          estimate D2E/DX2                !
 ! D25   D(6,7,8,9)            179.9994         estimate D2E/DX2                !
 ! D26   D(6,7,8,37)             0.0008         estimate D2E/DX2                !
 ! D27   D(36,7,8,9)            -0.0007         estimate D2E/DX2                !
 ! D28   D(36,7,8,37)         -179.9993         estimate D2E/DX2                !
 ! D29   D(7,8,9,10)          -179.9939         estimate D2E/DX2                !
 ! D30   D(7,8,9,38)             0.0025         estimate D2E/DX2                !
 ! D31   D(37,8,9,10)            0.0047         estimate D2E/DX2                !
 ! D32   D(37,8,9,38)         -179.9989         estimate D2E/DX2                !
 ! D33   D(8,9,10,11)          179.9941         estimate D2E/DX2                !
 ! D34   D(8,9,10,39)           -0.0004         estimate D2E/DX2                !
 ! D35   D(38,9,10,11)          -0.0022         estimate D2E/DX2                !
 ! D36   D(38,9,10,39)        -179.9967         estimate D2E/DX2                !
 ! D37   D(9,10,11,12)        -179.9824         estimate D2E/DX2                !
 ! D38   D(9,10,11,40)           0.0098         estimate D2E/DX2                !
 ! D39   D(39,10,11,12)          0.0121         estimate D2E/DX2                !
 ! D40   D(39,10,11,40)       -179.9957         estimate D2E/DX2                !
 ! D41   D(10,11,12,13)        179.9889         estimate D2E/DX2                !
 ! D42   D(10,11,12,41)         -0.0021         estimate D2E/DX2                !
 ! D43   D(40,11,12,13)         -0.0033         estimate D2E/DX2                !
 ! D44   D(40,11,12,41)       -179.9943         estimate D2E/DX2                !
 ! D45   D(11,12,13,14)       -179.9739         estimate D2E/DX2                !
 ! D46   D(11,12,13,42)          0.0162         estimate D2E/DX2                !
 ! D47   D(41,12,13,14)          0.0171         estimate D2E/DX2                !
 ! D48   D(41,12,13,42)       -179.9928         estimate D2E/DX2                !
 ! D49   D(12,13,14,15)        179.9871         estimate D2E/DX2                !
 ! D50   D(12,13,14,43)         -0.0034         estimate D2E/DX2                !
 ! D51   D(42,13,14,15)         -0.0029         estimate D2E/DX2                !
 ! D52   D(42,13,14,43)       -179.9934         estimate D2E/DX2                !
 ! D53   D(13,14,15,16)       -179.9749         estimate D2E/DX2                !
 ! D54   D(13,14,15,44)          0.0173         estimate D2E/DX2                !
 ! D55   D(43,14,15,16)          0.0157         estimate D2E/DX2                !
 ! D56   D(43,14,15,44)       -179.9922         estimate D2E/DX2                !
 ! D57   D(14,15,16,17)        179.9914         estimate D2E/DX2                !
 ! D58   D(14,15,16,45)         -0.0033         estimate D2E/DX2                !
 ! D59   D(44,15,16,17)         -0.0007         estimate D2E/DX2                !
 ! D60   D(44,15,16,45)       -179.9954         estimate D2E/DX2                !
 ! D61   D(15,16,17,18)       -179.9886         estimate D2E/DX2                !
 ! D62   D(15,16,17,46)          0.0104         estimate D2E/DX2                !
 ! D63   D(45,16,17,18)          0.0062         estimate D2E/DX2                !
 ! D64   D(45,16,17,46)       -179.9949         estimate D2E/DX2                !
 ! D65   D(16,17,18,19)       -179.9984         estimate D2E/DX2                !
 ! D66   D(16,17,18,47)         -0.0013         estimate D2E/DX2                !
 ! D67   D(46,17,18,19)          0.0027         estimate D2E/DX2                !
 ! D68   D(46,17,18,47)        179.9997         estimate D2E/DX2                !
 ! D69   D(17,18,19,20)        179.9883         estimate D2E/DX2                !
 ! D70   D(17,18,19,48)         -0.0035         estimate D2E/DX2                !
 ! D71   D(47,18,19,20)         -0.0088         estimate D2E/DX2                !
 ! D72   D(47,18,19,48)        179.9994         estimate D2E/DX2                !
 ! D73   D(18,19,20,21)       -179.9861         estimate D2E/DX2                !
 ! D74   D(18,19,20,49)          0.002          estimate D2E/DX2                !
 ! D75   D(48,19,20,21)          0.0058         estimate D2E/DX2                !
 ! D76   D(48,19,20,49)        179.9939         estimate D2E/DX2                !
 ! D77   D(19,20,21,22)        179.9655         estimate D2E/DX2                !
 ! D78   D(19,20,21,50)         -0.0188         estimate D2E/DX2                !
 ! D79   D(49,20,21,22)         -0.0226         estimate D2E/DX2                !
 ! D80   D(49,20,21,50)        179.993          estimate D2E/DX2                !
 ! D81   D(20,21,22,23)       -179.9774         estimate D2E/DX2                !
 ! D82   D(20,21,22,51)          0.0053         estimate D2E/DX2                !
 ! D83   D(50,21,22,23)          0.0068         estimate D2E/DX2                !
 ! D84   D(50,21,22,51)        179.9896         estimate D2E/DX2                !
 ! D85   D(21,22,23,24)        179.9545         estimate D2E/DX2                !
 ! D86   D(21,22,23,52)         -0.0279         estimate D2E/DX2                !
 ! D87   D(51,22,23,24)         -0.0283         estimate D2E/DX2                !
 ! D88   D(51,22,23,52)        179.9893         estimate D2E/DX2                !
 ! D89   D(22,23,24,25)       -179.9772         estimate D2E/DX2                !
 ! D90   D(22,23,24,53)          0.0067         estimate D2E/DX2                !
 ! D91   D(52,23,24,25)          0.0051         estimate D2E/DX2                !
 ! D92   D(52,23,24,53)        179.989          estimate D2E/DX2                !
 ! D93   D(23,24,25,26)        179.9614         estimate D2E/DX2                !
 ! D94   D(23,24,25,54)         -0.0258         estimate D2E/DX2                !
 ! D95   D(53,24,25,26)         -0.0226         estimate D2E/DX2                !
 ! D96   D(53,24,25,54)        179.9902         estimate D2E/DX2                !
 ! D97   D(24,25,26,27)       -179.9855         estimate D2E/DX2                !
 ! D98   D(24,25,26,55)          0.0052         estimate D2E/DX2                !
 ! D99   D(54,25,26,27)          0.0016         estimate D2E/DX2                !
 ! D100  D(54,25,26,55)        179.9923         estimate D2E/DX2                !
 ! D101  D(25,26,27,28)        179.9813         estimate D2E/DX2                !
 ! D102  D(25,26,27,56)         -0.0137         estimate D2E/DX2                !
 ! D103  D(55,26,27,28)         -0.0095         estimate D2E/DX2                !
 ! D104  D(55,26,27,56)        179.9955         estimate D2E/DX2                !
 ! D105  D(26,27,28,57)          0.0012         estimate D2E/DX2                !
 ! D106  D(26,27,28,58)       -179.9961         estimate D2E/DX2                !
 ! D107  D(56,27,28,57)        179.9964         estimate D2E/DX2                !
 ! D108  D(56,27,28,58)         -0.001          estimate D2E/DX2                !
 --------------------------------------------------------------------------------
 Trust Radius=3.00D-01 FncErr=1.00D-07 GrdErr=1.00D-06 EigMax=2.50D+02 EigMin=1.00D-04
 Number of steps in this run=    259 maximum allowed number of steps=    348.
 GradGradGradGradGradGradGradGradGradGradGradGradGradGradGradGradGradGrad

 Stoichiometry    C28H30
 Framework group  C1[X(C28H30)]
 Deg. of freedom   168
 Full point group                 C1      NOp   1
 Largest Abelian subgroup         C1      NOp   1
 Largest concise Abelian subgroup C1      NOp   1
                         Standard orientation:                         
 ---------------------------------------------------------------------
 Center     Atomic      Atomic             Coordinates (Angstroms)
 Number     Number       Type             X           Y           Z
 ---------------------------------------------------------------------
      1          6           0      -16.515061    0.246835   -0.001792
      2          6           0      -15.362135   -0.426184   -0.001458
      3          6           0      -14.065058    0.280986   -0.001150
      4          6           0      -12.910752   -0.398661   -0.000755
      5          6           0      -11.612610    0.307630   -0.000398
      6          6           0      -10.458782   -0.372916    0.000097
      7          6           0       -9.159905    0.332019    0.000505
      8          6           0       -8.007019   -0.350122    0.001048
      9          6           0       -6.706935    0.352574    0.001444
     10          6           0       -5.555435   -0.331927    0.001864
     11          6           0       -4.253730    0.367732    0.002132
     12          6           0       -3.103956   -0.319704    0.002199
     13          6           0       -1.800407    0.376459    0.002221
     14          6           0       -0.652460   -0.314074    0.001764
     15          6           0        0.652855    0.378706    0.001499
     16          6           0        1.799201   -0.314526    0.000538
     17          6           0        3.105871    0.375644    0.000081
     18          6           0        4.251163   -0.319349   -0.001110
     19          6           0        5.558524    0.369499   -0.001533
     20          6           0        6.703486   -0.326022   -0.002490
     21          6           0        8.010819    0.362912   -0.002604
     22          6           0        9.156113   -0.332016   -0.002870
     23          6           0       10.462891    0.358042   -0.002484
     24          6           0       11.608883   -0.335680   -0.001837
     25          6           0       12.914950    0.355806   -0.000947
     26          6           0       14.061570   -0.336737    0.000476
     27          6           0       15.366399    0.356041    0.001684
     28          6           0       16.511868   -0.329579    0.003476
     29          1           0      -17.457169   -0.291815   -0.002004
     30          1           0      -16.531963    1.332754   -0.001850
     31          1           0      -15.387137   -1.512650   -0.001402
     32          1           0      -14.052425    1.368608   -0.001222
     33          1           0      -12.924536   -1.486286   -0.000667
     34          1           0      -11.598526    1.395209   -0.000511
     35          1           0      -10.473369   -1.460518    0.000223
     36          1           0       -9.144464    1.419575    0.000363
     37          1           0       -8.023265   -1.437702    0.001178
     38          1           0       -6.689431    1.440096    0.001333
     39          1           0       -5.574021   -1.419469    0.001921
     40          1           0       -4.233582    1.455208    0.002147
     41          1           0       -3.125340   -1.407193    0.002089
     42          1           0       -1.777371    1.463880    0.002450
     43          1           0       -0.676686   -1.401500    0.001427
     44          1           0        0.678524    1.466071    0.001966
     45          1           0        1.772618   -1.401893   -0.000003
     46          1           0        3.133403    1.462967    0.000706
     47          1           0        4.223167   -1.406678   -0.001730
     48          1           0        5.586817    1.456804   -0.000923
     49          1           0        6.675220   -1.413344   -0.002998
     50          1           0        8.038789    1.450228   -0.002211
     51          1           0        9.128533   -1.419355   -0.003091
     52          1           0       10.489850    1.445388   -0.002441
     53          1           0       11.582432   -1.423046   -0.001699
     54          1           0       12.940972    1.443195   -0.001247
     55          1           0       14.036830   -1.424158    0.000904
     56          1           0       15.403355    1.442166    0.001197
     57          1           0       16.516891   -1.415613    0.004076
     58          1           0       17.459805    0.198751    0.004403
 ---------------------------------------------------------------------
 Rotational constants (GHZ):           5.1513942           0.0139109           0.0138735
 Standard basis: 6-31G(d,p) (6D, 7F)
 There are   570 symmetry adapted cartesian basis functions of A   symmetry.
 There are   570 symmetry adapted basis functions of A   symmetry.
   570 basis functions,   994 primitive gaussians,   570 cartesian basis functions
    99 alpha electrons       99 beta electrons
       nuclear repulsion energy      1703.3744291266 Hartrees.
 NAtoms=   58 NActive=   58 NUniq=   58 SFac= 1.00D+00 NAtFMM=   60 NAOKFM=F Big=F
 Integral buffers will be    131072 words long.
 Raffenetti 2 integral format.
 Two-electron integral symmetry is turned on.
 One-electron integrals computed using PRISM.
 NBasis=   570 RedAO= T EigKep=  1.11D-03  NBF=   570
 NBsUse=   570 1.00D-06 EigRej= -1.00D+00 NBFU=   570
 ExpMin= 1.61D-01 ExpMax= 3.05D+03 ExpMxC= 4.57D+02 IAcc=3 IRadAn=         5 AccDes= 0.00D+00
 Harris functional with IExCor=  402 and IRadAn=       5 diagonalized for initial guess.
 HarFok:  IExCor=  402 AccDes= 0.00D+00 IRadAn=         5 IDoV= 1 UseB2=F ITyADJ=14
 ICtDFT=  3500011 ScaDFX=  1.000000  1.000000  1.000000  1.000000
 FoFCou: FMM=F IPFlag=           0 FMFlag=      100000 FMFlg1=           0
         NFxFlg=           0 DoJE=T BraDBF=F KetDBF=T FulRan=T
         wScrn=  0.000000 ICntrl=       500 IOpCl=  0 I1Cent=   200000004 NGrid=           0
         NMat0=    1 NMatS0=      1 NMatT0=    0 NMatD0=    1 NMtDS0=    0 NMtDT0=    0
 Petite list used in FoFCou.
 Requested convergence on RMS density matrix=1.00D-08 within 128 cycles.
 Requested convergence on MAX density matrix=1.00D-06.
 Requested convergence on             energy=1.00D-06.
 No special actions if energy rises.
 Integral accuracy reduced to 1.0D-05 until final iterations.
 Initial convergence to 1.0D-05 achieved.  Increase integral accuracy.
 SCF Done:  E(RB3LYP) =  -1084.89734645     A.U. after   13 cycles
            NFock= 13  Conv=0.68D-08     -V/T= 2.0100

 **********************************************************************

            Population analysis using the SCF Density.

 **********************************************************************

 Orbital symmetries:
       Occupied  (A) (A) (A) (A) (A) (A) (A) (A) (A) (A) (A) (A)
                 (A) (A) (A) (A) (A) (A) (A) (A) (A) (A) (A) (A)
                 (A) (A) (A) (A) (A) (A) (A) (A) (A) (A) (A) (A)
                 (A) (A) (A) (A) (A) (A) (A) (A) (A) (A) (A) (A)
                 (A) (A) (A) (A) (A) (A) (A) (A) (A) (A) (A) (A)
                 (A) (A) (A) (A) (A) (A) (A) (A) (A) (A) (A) (A)
                 (A) (A) (A) (A) (A) (A) (A) (A) (A) (A) (A) (A)
                 (A) (A) (A) (A) (A) (A) (A) (A) (A) (A) (A) (A)
                 (A) (A) (A)
       Virtual   (A) (A) (A) (A) (A) (A) (A) (A) (A) (A) (A) (A)
                 (A) (A) (A) (A) (A) (A) (A) (A) (A) (A) (A) (A)
                 (A) (A) (A) (A) (A) (A) (A) (A) (A) (A) (A) (A)
                 (A) (A) (A) (A) (A) (A) (A) (A) (A) (A) (A) (A)
                 (A) (A) (A) (A) (A) (A) (A) (A) (A) (A) (A) (A)
                 (A) (A) (A) (A) (A) (A) (A) (A) (A) (A) (A) (A)
                 (A) (A) (A) (A) (A) (A) (A) (A) (A) (A) (A) (A)
                 (A) (A) (A) (A) (A) (A) (A) (A) (A) (A) (A) (A)
                 (A) (A) (A) (A) (A) (A) (A) (A) (A) (A) (A) (A)
                 (A) (A) (A) (A) (A) (A) (A) (A) (A) (A) (A) (A)
                 (A) (A) (A) (A) (A) (A) (A) (A) (A) (A) (A) (A)
                 (A) (A) (A) (A) (A) (A) (A) (A) (A) (A) (A) (A)
                 (A) (A) (A) (A) (A) (A) (A) (A) (A) (A) (A) (A)
                 (A) (A) (A) (A) (A) (A) (A) (A) (A) (A) (A) (A)
                 (A) (A) (A) (A) (A) (A) (A) (A) (A) (A) (A) (A)
                 (A) (A) (A) (A) (A) (A) (A) (A) (A) (A) (A) (A)
                 (A) (A) (A) (A) (A) (A) (A) (A) (A) (A) (A) (A)
                 (A) (A) (A) (A) (A) (A) (A) (A) (A) (A) (A) (A)
                 (A) (A) (A) (A) (A) (A) (A) (A) (A) (A) (A) (A)
                 (A) (A) (A) (A) (A) (A) (A) (A) (A) (A) (A) (A)
                 (A) (A) (A) (A) (A) (A) (A) (A) (A) (A) (A) (A)
                 (A) (A) (A) (A) (A) (A) (A) (A) (A) (A) (A) (A)
                 (A) (A) (A) (A) (A) (A) (A) (A) (A) (A) (A) (A)
                 (A) (A) (A) (A) (A) (A) (A) (A) (A) (A) (A) (A)
                 (A) (A) (A) (A) (A) (A) (A) (A) (A) (A) (A) (A)
                 (A) (A) (A) (A) (A) (A) (A) (A) (A) (A) (A) (A)
                 (A) (A) (A) (A) (A) (A) (A) (A) (A) (A) (A) (A)
                 (A) (A) (A) (A) (A) (A) (A) (A) (A) (A) (A) (A)
                 (A) (A) (A) (A) (A) (A) (A) (A) (A) (A) (A) (A)
                 (A) (A) (A) (A) (A) (A) (A) (A) (A) (A) (A) (A)
                 (A) (A) (A) (A) (A) (A) (A) (A) (A) (A) (A) (A)
                 (A) (A) (A) (A) (A) (A) (A) (A) (A) (A) (A) (A)
                 (A) (A) (A) (A) (A) (A) (A) (A) (A) (A) (A) (A)
                 (A) (A) (A) (A) (A) (A) (A) (A) (A) (A) (A) (A)
                 (A) (A) (A) (A) (A) (A) (A) (A) (A) (A) (A) (A)
                 (A) (A) (A) (A) (A) (A) (A) (A) (A) (A) (A) (A)
                 (A) (A) (A) (A) (A) (A) (A) (A) (A) (A) (A) (A)
                 (A) (A) (A) (A) (A) (A) (A) (A) (A) (A) (A) (A)
                 (A) (A) (A) (A) (A) (A) (A) (A) (A) (A) (A) (A)
                 (A) (A) (A)
 The electronic state is 1-A.
 Alpha  occ. eigenvalues --  -10.19134 -10.19129 -10.19108 -10.19101 -10.19099
 Alpha  occ. eigenvalues --  -10.19096 -10.19093 -10.19090 -10.19086 -10.19083
 Alpha  occ. eigenvalues --  -10.19080 -10.19077 -10.19073 -10.19068 -10.19018
 Alpha  occ. eigenvalues --  -10.19012 -10.19009 -10.19005 -10.19000 -10.18997
 Alpha  occ. eigenvalues --  -10.18994 -10.18991 -10.18987 -10.18983 -10.18932
 Alpha  occ. eigenvalues --  -10.18925 -10.17913 -10.17907  -0.82929  -0.82683
 Alpha  occ. eigenvalues --   -0.82270  -0.81698  -0.80971  -0.80092  -0.79066
 Alpha  occ. eigenvalues --   -0.77897  -0.76593  -0.75166  -0.73638  -0.72052
 Alpha  occ. eigenvalues --   -0.70508  -0.69253  -0.63561  -0.62095  -0.60202
 Alpha  occ. eigenvalues --   -0.58169  -0.57053  -0.56842  -0.56487  -0.56252
 Alpha  occ. eigenvalues --   -0.55981  -0.55469  -0.54844  -0.54709  -0.54234
 Alpha  occ. eigenvalues --   -0.54050  -0.48582  -0.48387  -0.47735  -0.47532
 Alpha  occ. eigenvalues --   -0.46442  -0.46112  -0.45258  -0.44545  -0.43886
 Alpha  occ. eigenvalues --   -0.42244  -0.41795  -0.41123  -0.40091  -0.40034
 Alpha  occ. eigenvalues --   -0.39035  -0.38736  -0.38181  -0.37892  -0.37534
 Alpha  occ. eigenvalues --   -0.37496  -0.37357  -0.37026  -0.36609  -0.36230
 Alpha  occ. eigenvalues --   -0.35781  -0.35279  -0.35135  -0.34960  -0.34425
 Alpha  occ. eigenvalues --   -0.34289  -0.33683  -0.33455  -0.32865  -0.32736
 Alpha  occ. eigenvalues --   -0.31588  -0.30242  -0.28705  -0.26983  -0.25092
 Alpha  occ. eigenvalues --   -0.23059  -0.20942  -0.18874  -0.17182
 Alpha virt. eigenvalues --   -0.07371  -0.05592  -0.03320  -0.00916   0.01434
 Alpha virt. eigenvalues --    0.03614   0.05535   0.07130   0.08225   0.08354
 Alpha virt. eigenvalues --    0.08600   0.09196   0.09203   0.09689   0.09910
 Alpha virt. eigenvalues --    0.09951   0.09965   0.10008   0.10994   0.12125
 Alpha virt. eigenvalues --    0.12615   0.12652   0.13420   0.13802   0.13891
 Alpha virt. eigenvalues --    0.14173   0.14267   0.14574   0.14734   0.14943
 Alpha virt. eigenvalues --    0.15197   0.15290   0.15541   0.15732   0.16303
 Alpha virt. eigenvalues --    0.16440   0.17276   0.17934   0.19282   0.19789
 Alpha virt. eigenvalues --    0.19949   0.20472   0.21110   0.21161   0.25038
 Alpha virt. eigenvalues --    0.26487   0.28525   0.30355   0.30733   0.31026
 Alpha virt. eigenvalues --    0.31808   0.31888   0.33376   0.34049   0.34189
 Alpha virt. eigenvalues --    0.34989   0.36112   0.36242   0.36623   0.36999
 Alpha virt. eigenvalues --    0.37051   0.37764   0.38761   0.40842   0.41468
 Alpha virt. eigenvalues --    0.41613   0.41680   0.42091   0.42365   0.43938
 Alpha virt. eigenvalues --    0.44893   0.47488   0.48164   0.51657   0.51841
 Alpha virt. eigenvalues --    0.51871   0.51892   0.52240   0.52769   0.53464
 Alpha virt. eigenvalues --    0.54323   0.54690   0.55342   0.55394   0.56500
 Alpha virt. eigenvalues --    0.56717   0.56962   0.57485   0.57912   0.58074
 Alpha virt. eigenvalues --    0.58703   0.58742   0.58845   0.58848   0.59068
 Alpha virt. eigenvalues --    0.59316   0.59415   0.59515   0.59965   0.60381
 Alpha virt. eigenvalues --    0.60633   0.60972   0.61130   0.61510   0.62172
 Alpha virt. eigenvalues --    0.62634   0.62637   0.63582   0.64044   0.64173
 Alpha virt. eigenvalues --    0.64802   0.65061   0.65518   0.66337   0.66400
 Alpha virt. eigenvalues --    0.66962   0.67150   0.67686   0.68828   0.69729
 Alpha virt. eigenvalues --    0.69778   0.69870   0.70280   0.72372   0.72758
 Alpha virt. eigenvalues --    0.74722   0.74969   0.76391   0.76462   0.78600
 Alpha virt. eigenvalues --    0.78751   0.79113   0.79752   0.80676   0.81815
 Alpha virt. eigenvalues --    0.82943   0.83564   0.84037   0.84497   0.84652
 Alpha virt. eigenvalues --    0.84907   0.85088   0.85254   0.85658   0.86077
 Alpha virt. eigenvalues --    0.86444   0.86454   0.86778   0.86995   0.87279
 Alpha virt. eigenvalues --    0.87550   0.87808   0.87831   0.87995   0.88932
 Alpha virt. eigenvalues --    0.89630   0.89981   0.91082   0.91250   0.91570
 Alpha virt. eigenvalues --    0.91830   0.92467   0.92743   0.93573   0.94812
 Alpha virt. eigenvalues --    0.95488   0.97182   0.98697   0.99322   1.02582
 Alpha virt. eigenvalues --    1.02589   1.03184   1.03522   1.03553   1.04876
 Alpha virt. eigenvalues --    1.04900   1.06082   1.06258   1.06418   1.07590
 Alpha virt. eigenvalues --    1.07872   1.09037   1.09652   1.10345   1.10550
 Alpha virt. eigenvalues --    1.11695   1.13579   1.15169   1.15991   1.17519
 Alpha virt. eigenvalues --    1.18313   1.20879   1.22214   1.24206   1.26323
 Alpha virt. eigenvalues --    1.27648   1.28969   1.29469   1.29488   1.29995
 Alpha virt. eigenvalues --    1.30040   1.30597   1.30790   1.30797   1.31052
 Alpha virt. eigenvalues --    1.31442   1.31753   1.31757   1.32394   1.32624
 Alpha virt. eigenvalues --    1.32961   1.33165   1.33439   1.33536   1.33665
 Alpha virt. eigenvalues --    1.34115   1.34594   1.34881   1.35857   1.36640
 Alpha virt. eigenvalues --    1.37644   1.38770   1.39279   1.39982   1.41267
 Alpha virt. eigenvalues --    1.42618   1.44021   1.45296   1.45449   1.46862
 Alpha virt. eigenvalues --    1.48210   1.49439   1.49748   1.50256   1.50488
 Alpha virt. eigenvalues --    1.51300   1.51832   1.51917   1.52094   1.52416
 Alpha virt. eigenvalues --    1.54187   1.54334   1.76348   1.76460   1.76563
 Alpha virt. eigenvalues --    1.76575   1.76663   1.76759   1.76810   1.77197
 Alpha virt. eigenvalues --    1.77269   1.77890   1.77909   1.78582   1.78618
 Alpha virt. eigenvalues --    1.82305   1.83370   1.85083   1.86260   1.86267
 Alpha virt. eigenvalues --    1.87341   1.90021   1.91377   1.92063   1.92207
 Alpha virt. eigenvalues --    1.92454   1.92871   1.92981   1.93437   1.93938
 Alpha virt. eigenvalues --    1.94041   1.95037   1.95256   1.95672   1.96072
 Alpha virt. eigenvalues --    1.96578   1.96972   1.98275   1.98341   1.99149
 Alpha virt. eigenvalues --    2.02092   2.03108   2.03778   2.04817   2.05285
 Alpha virt. eigenvalues --    2.07267   2.07842   2.08176   2.08284   2.09380
 Alpha virt. eigenvalues --    2.10356   2.10977   2.11000   2.11221   2.12804
 Alpha virt. eigenvalues --    2.14870   2.15194   2.16913   2.17673   2.17835
 Alpha virt. eigenvalues --    2.17999   2.18493   2.19346   2.19792   2.20280
 Alpha virt. eigenvalues --    2.20861   2.21970   2.22472   2.23150   2.23983
 Alpha virt. eigenvalues --    2.23990   2.24143   2.24829   2.25869   2.27657
 Alpha virt. eigenvalues --    2.29491   2.29512   2.31429   2.33376   2.35257
 Alpha virt. eigenvalues --    2.35454   2.36856   2.37866   2.41602   2.41610
 Alpha virt. eigenvalues --    2.41729   2.44470   2.44593   2.45158   2.45945
 Alpha virt. eigenvalues --    2.47079   2.47309   2.48121   2.48212   2.48547
 Alpha virt. eigenvalues --    2.49230   2.49421   2.49767   2.50475   2.50960
 Alpha virt. eigenvalues --    2.50965   2.52004   2.52150   2.52179   2.52510
 Alpha virt. eigenvalues --    2.53021   2.53969   2.54427   2.54626   2.55456
 Alpha virt. eigenvalues --    2.56050   2.56236   2.56491   2.57063   2.58811
 Alpha virt. eigenvalues --    2.59262   2.59655   2.60364   2.61436   2.61760
 Alpha virt. eigenvalues --    2.62227   2.63104   2.64005   2.64676   2.65075
 Alpha virt. eigenvalues --    2.66000   2.66742   2.67521   2.67767   2.68092
 Alpha virt. eigenvalues --    2.68508   2.69578   2.69814   2.70501   2.70615
 Alpha virt. eigenvalues --    2.70851   2.70967   2.71204   2.72016   2.72652
 Alpha virt. eigenvalues --    2.74235   2.74326   2.76400   2.77237   2.79676
 Alpha virt. eigenvalues --    2.79882   2.83120   2.83350   2.84045   2.86047
 Alpha virt. eigenvalues --    2.87034   2.87718   2.88500   2.90601   2.91093
 Alpha virt. eigenvalues --    2.91402   2.91794   2.91826   2.92479   2.92878
 Alpha virt. eigenvalues --    2.92953   2.93493   2.94218   2.95371   2.95840
 Alpha virt. eigenvalues --    2.97128   2.97343   2.98574   2.98644   2.99599
 Alpha virt. eigenvalues --    2.99632   3.00104   3.00196   3.28039   3.28043
 Alpha virt. eigenvalues --    3.35192   3.35391   3.35755   3.36324   3.37136
 Alpha virt. eigenvalues --    3.38188   3.39406   3.40729   3.42196   3.43920
 Alpha virt. eigenvalues --    3.45992   3.48434   3.51175   3.51424   3.53438
 Alpha virt. eigenvalues --    3.53936   3.56332   3.59030   3.59632   3.61606
 Alpha virt. eigenvalues --    3.62891   3.64300   3.65711   3.66524   3.67734
 Alpha virt. eigenvalues --    3.68002   3.71062   3.71074   4.13725   4.13769
 Alpha virt. eigenvalues --    4.13867   4.13963   4.14066   4.14230   4.14510
 Alpha virt. eigenvalues --    4.14956   4.15611   4.16521   4.17725   4.19256
 Alpha virt. eigenvalues --    4.21108   4.25083   4.26140   4.29606   4.33200
 Alpha virt. eigenvalues --    4.37192   4.41533   4.46144   4.50924   4.55737
 Alpha virt. eigenvalues --    4.60423   4.64804   4.68698   4.71933   4.74358
 Alpha virt. eigenvalues --    4.75867
          Condensed to atoms (all electrons):
 Mulliken charges:
               1
     1  C   -0.251962
     2  C   -0.033575
     3  C   -0.077876
     4  C   -0.076707
     5  C   -0.080819
     6  C   -0.078946
     7  C   -0.079922
     8  C   -0.079612
     9  C   -0.079812
    10  C   -0.079746
    11  C   -0.079754
    12  C   -0.079806
    13  C   -0.079710
    14  C   -0.079825
    15  C   -0.079681
    16  C   -0.079823
    17  C   -0.079663
    18  C   -0.079816
    19  C   -0.079636
    20  C   -0.079822
    21  C   -0.079550
    22  C   -0.079897
    23  C   -0.078930
    24  C   -0.080784
    25  C   -0.076720
    26  C   -0.077849
    27  C   -0.033587
    28  C   -0.251949
    29  H    0.095336
    30  H    0.095496
    31  H    0.083685
    32  H    0.081578
    33  H    0.080923
    34  H    0.080541
    35  H    0.080170
    36  H    0.080160
    37  H    0.079997
    38  H    0.080040
    39  H    0.079929
    40  H    0.079999
    41  H    0.079905
    42  H    0.079987
    43  H    0.079910
    44  H    0.079987
    45  H    0.079936
    46  H    0.079991
    47  H    0.079982
    48  H    0.080006
    49  H    0.080054
    50  H    0.080055
    51  H    0.080192
    52  H    0.080206
    53  H    0.080578
    54  H    0.080945
    55  H    0.081606
    56  H    0.083704
    57  H    0.095515
    58  H    0.095363
 Sum of Mulliken charges =  -0.00000
 Mulliken charges with hydrogens summed into heavy atoms:
               1
     1  C   -0.061130
     2  C    0.050110
     3  C    0.003702
     4  C    0.004216
     5  C   -0.000277
     6  C    0.001224
     7  C    0.000238
     8  C    0.000385
     9  C    0.000229
    10  C    0.000183
    11  C    0.000245
    12  C    0.000100
    13  C    0.000277
    14  C    0.000085
    15  C    0.000306
    16  C    0.000113
    17  C    0.000328
    18  C    0.000166
    19  C    0.000370
    20  C    0.000232
    21  C    0.000504
    22  C    0.000296
    23  C    0.001276
    24  C   -0.000206
    25  C    0.004225
    26  C    0.003757
    27  C    0.050116
    28  C   -0.061071
 Electronic spatial extent (au):  <R**2>=          71459.2888
 Charge=             -0.0000 electrons
 Dipole moment (field-independent basis, Debye):
    X=              0.0272    Y=              0.0032    Z=              0.0004  Tot=              0.0273
 Quadrupole moment (field-independent basis, Debye-Ang):
   XX=           -164.4805   YY=           -146.6712   ZZ=           -182.4217
   XY=              2.1237   XZ=              0.0115   YZ=              0.0023
 Traceless Quadrupole moment (field-independent basis, Debye-Ang):
   XX=              0.0440   YY=             17.8533   ZZ=            -17.8973
   XY=              2.1237   XZ=              0.0115   YZ=              0.0023
 Octapole moment (field-independent basis, Debye-Ang**2):
  XXX=              4.2761  YYY=              0.0504  ZZZ=             -0.0004  XYY=             -0.1570
  XXY=              1.2347  XXZ=              0.1527  XZZ=              0.0215  YZZ=              0.0125
  YYZ=              0.0006  XYZ=             -0.0022
 Hexadecapole moment (field-independent basis, Debye-Ang**3):
 XXXX=         -96644.3148 YYYY=           -474.5372 ZZZZ=           -189.1769 XXXY=            643.2936
 XXXZ=              4.9691 YYYX=             -0.2063 YYYZ=              0.0037 ZZZX=             -0.0298
 ZZZY=              0.0019 XXYY=         -14851.4778 XXZZ=         -18380.9655 YYZZ=           -124.4195
 XXYZ=             -0.4563 YYXZ=             -0.0001 ZZXY=              1.4796
 N-N= 1.703374429127D+03 E-N=-5.916273970755D+03  KE= 1.074155820120D+03
 Calling FoFJK, ICntrl=      2127 FMM=F ISym2X=0 I1Cent= 0 IOpClX= 0 NMat=1 NMatS=1 NMatT=0.
 ***** Axes restored to original set *****
 -------------------------------------------------------------------
 Center     Atomic                   Forces (Hartrees/Bohr)
 Number     Number              X              Y              Z
 -------------------------------------------------------------------
      1        6          -0.008396131    0.004082164   -0.000190867
      2        6           0.010723325   -0.022507753    0.001284685
      3        6          -0.021224167    0.023818749   -0.001294802
      4        6           0.024693988   -0.025866518    0.001394929
      5        6          -0.026800752    0.025040254   -0.001330872
      6        6           0.027630647   -0.025674513    0.001362943
      7        6          -0.028339758    0.025352952   -0.001338746
      8        6           0.028659898   -0.025556547    0.001348631
      9        6          -0.028915771    0.025413924   -0.001339445
     10        6           0.029085053   -0.025472581    0.001342544
     11        6          -0.029178749    0.025390266   -0.001339750
     12        6           0.029291983   -0.025388436    0.001340563
     13        6          -0.029317506    0.025333462   -0.001341050
     14        6           0.029397164   -0.025305530    0.001340861
     15        6          -0.029387429    0.025272002   -0.001342588
     16        6           0.029427920   -0.025232378    0.001341119
     17        6          -0.029386552    0.025226918   -0.001342562
     18        6           0.029369341   -0.025175120    0.001338739
     19        6          -0.029269833    0.025213984   -0.001339726
     20        6           0.029158333   -0.025124417    0.001331918
     21        6          -0.028908316    0.025245508   -0.001335625
     22        6           0.028607002   -0.025034132    0.001320349
     23        6          -0.027912584    0.025355997   -0.001338110
     24        6           0.027072937   -0.024733145    0.001302280
     25        6          -0.024986447    0.025583528   -0.001364220
     26        6           0.021485091   -0.023579160    0.001267016
     27        6          -0.010974497    0.022385356   -0.001272181
     28        6           0.008441042   -0.003989154    0.000178011
     29        1          -0.002744143   -0.003536078    0.000230799
     30        1          -0.002399266    0.000471403   -0.000012463
     31        1           0.005370873    0.000199857   -0.000046939
     32        1          -0.003417570    0.000563700   -0.000011255
     33        1           0.003201389   -0.000417557    0.000004276
     34        1          -0.003206777    0.000473808   -0.000007228
     35        1           0.003213536   -0.000430221    0.000004752
     36        1          -0.003216791    0.000451784   -0.000006217
     37        1           0.003213107   -0.000438041    0.000004944
     38        1          -0.003215579    0.000438624   -0.000006283
     39        1           0.003211293   -0.000434058    0.000004563
     40        1          -0.003212189    0.000428643   -0.000006810
     41        1           0.003207255   -0.000425667    0.000004339
     42        1          -0.003206807    0.000419531   -0.000007198
     43        1           0.003202019   -0.000416891    0.000004631
     44        1          -0.003201148    0.000410651   -0.000006864
     45        1           0.003197656   -0.000411220    0.000005485
     46        1          -0.003197474    0.000402397   -0.000005521
     47        1           0.003196256   -0.000410911    0.000006601
     48        1          -0.003197459    0.000395713   -0.000003387
     49        1           0.003198864   -0.000416598    0.000007473
     50        1          -0.003201336    0.000390323   -0.000001020
     51        1           0.003205214   -0.000428213    0.000007717
     52        1          -0.003208115    0.000380721    0.000001174
     53        1           0.003203361   -0.000448265    0.000007616
     54        1          -0.003202659    0.000373210    0.000002328
     55        1           0.003421738   -0.000530923    0.000009260
     56        1          -0.005368733   -0.000259327    0.000057125
     57        1           0.002404111   -0.000441857    0.000010219
     58        1           0.002704145    0.003569782   -0.000236162
 -------------------------------------------------------------------
 Cartesian Forces:  Max     0.029427920 RMS     0.014333927

 GradGradGradGradGradGradGradGradGradGradGradGradGradGradGradGradGradGrad
 Berny optimization.
 FormGI is forming the generalized inverse of G from B-inverse, IUseBI=4.
 Internal  Forces:  Max     0.022150122 RMS     0.008255310
 Search for a local minimum.
 Step number   1 out of a maximum of  259
 All quantities printed in internal units (Hartrees-Bohrs-Radians)
 Mixed Optimization -- RFO/linear search
 Second derivative matrix not updated -- first step.
 ITU=  0
     Eigenvalues ---    0.01059   0.01059   0.01059   0.01059   0.01059
     Eigenvalues ---    0.01060   0.01060   0.01060   0.01060   0.01060
     Eigenvalues ---    0.01060   0.01066   0.01066   0.01978   0.01978
     Eigenvalues ---    0.01978   0.01978   0.01978   0.01978   0.01978
     Eigenvalues ---    0.01978   0.01978   0.01978   0.01978   0.01978
     Eigenvalues ---    0.01978   0.01978   0.01978   0.01978   0.01978
     Eigenvalues ---    0.01978   0.01978   0.01978   0.01978   0.01978
     Eigenvalues ---    0.01982   0.01982   0.01998   0.01998   0.02887
     Eigenvalues ---    0.02887   0.02887   0.02887   0.02887   0.02888
     Eigenvalues ---    0.02888   0.02888   0.02888   0.02888   0.02889
     Eigenvalues ---    0.02889   0.02949   0.02949   0.02949   0.02949
     Eigenvalues ---    0.16000   0.16000   0.16000   0.16000   0.16000
     Eigenvalues ---    0.16000   0.16000   0.16000   0.16000   0.16000
     Eigenvalues ---    0.16000   0.16000   0.16000   0.16000   0.16000
     Eigenvalues ---    0.16000   0.16000   0.16000   0.16000   0.16000
     Eigenvalues ---    0.16000   0.16000   0.16000   0.16000   0.16000
     Eigenvalues ---    0.16000   0.16000   0.16000   0.16000   0.16000
     Eigenvalues ---    0.22000   0.22000   0.22000   0.22000   0.22000
     Eigenvalues ---    0.22000   0.22000   0.22000   0.22000   0.22000
     Eigenvalues ---    0.22000   0.22000   0.22000   0.22000   0.22000
     Eigenvalues ---    0.22000   0.22000   0.22000   0.22000   0.22000
     Eigenvalues ---    0.22000   0.22000   0.22000   0.22000   0.22000
     Eigenvalues ---    0.22000   0.34818   0.34818   0.34818   0.34820
     Eigenvalues ---    0.34820   0.34823   0.34824   0.34827   0.34828
     Eigenvalues ---    0.34829   0.34830   0.34876   0.34877   0.35078
     Eigenvalues ---    0.35080   0.35080   0.35080   0.35080   0.35080
     Eigenvalues ---    0.35080   0.35080   0.35080   0.35081   0.35081
     Eigenvalues ---    0.35081   0.35081   0.35081   0.35082   0.35083
     Eigenvalues ---    0.35083   0.35083   0.35083   0.35084   0.35084
     Eigenvalues ---    0.35084   0.35084   0.35084   0.35190   0.35191
     Eigenvalues ---    0.35273   0.35274   0.35370   0.35371   0.57280
     Eigenvalues ---    0.57281   0.57282   0.57287   0.57287   0.57293
     Eigenvalues ---    0.57293   0.57298   0.57300   0.57300   0.57309
     Eigenvalues ---    0.57310   0.58343   0.58344
 RFO step:  Lambda=-4.68036932D-02 EMin= 1.05905053D-02
 Linear search not attempted -- first point.
 Maximum step size (   0.300) exceeded in Quadratic search.
    -- Step size scaled by   0.785
 Iteration  1 RMS(Cart)=  0.08243367 RMS(Int)=  0.00028317
 Iteration  2 RMS(Cart)=  0.00136435 RMS(Int)=  0.00000016
 Iteration  3 RMS(Cart)=  0.00000018 RMS(Int)=  0.00000016
 Variable       Old X    -DE/DX   Delta X   Delta X   Delta X     New X
                                 (Linear)    (Quad)   (Total)
    R1        2.52276   0.01191   0.00000   0.01483   0.01483   2.53759
    R2        2.05078   0.00017   0.00000   0.00033   0.00033   2.05111
    R3        2.05234  -0.00019   0.00000  -0.00037  -0.00037   2.05197
    R4        2.79175  -0.01417   0.00000  -0.02812  -0.02812   2.76363
    R5        2.05367   0.00062   0.00000   0.00123   0.00123   2.05490
    R6        2.53135   0.01879   0.00000   0.02379   0.02379   2.55514
    R7        2.05545  -0.00025   0.00000  -0.00050  -0.00050   2.05495
    R8        2.79272  -0.01791   0.00000  -0.03560  -0.03560   2.75711
    R9        2.05548  -0.00013   0.00000  -0.00026  -0.00026   2.05522
   R10        2.53143   0.02102   0.00000   0.02662   0.02662   2.55805
   R11        2.05540  -0.00019   0.00000  -0.00037  -0.00037   2.05503
   R12        2.79271  -0.01892   0.00000  -0.03761  -0.03761   2.75511
   R13        2.05545  -0.00014   0.00000  -0.00028  -0.00028   2.05517
   R14        2.53143   0.02177   0.00000   0.02758   0.02758   2.55901
   R15        2.05539  -0.00017   0.00000  -0.00033  -0.00033   2.05506
   R16        2.79271  -0.01926   0.00000  -0.03829  -0.03829   2.75442
   R17        2.05546  -0.00016   0.00000  -0.00031  -0.00031   2.05515
   R18        2.53145   0.02204   0.00000   0.02792   0.02792   2.55937
   R19        2.05538  -0.00016   0.00000  -0.00032  -0.00032   2.05507
   R20        2.79268  -0.01939   0.00000  -0.03854  -0.03854   2.75414
   R21        2.05546  -0.00016   0.00000  -0.00032  -0.00032   2.05514
   R22        2.53149   0.02213   0.00000   0.02804   0.02804   2.55953
   R23        2.05538  -0.00016   0.00000  -0.00031  -0.00031   2.05507
   R24        2.79263  -0.01944   0.00000  -0.03863  -0.03863   2.75400
   R25        2.05545  -0.00016   0.00000  -0.00032  -0.00032   2.05514
   R26        2.53154   0.02215   0.00000   0.02806   0.02806   2.55960
   R27        2.05539  -0.00016   0.00000  -0.00031  -0.00031   2.05507
   R28        2.79257  -0.01944   0.00000  -0.03863  -0.03863   2.75394
   R29        2.05545  -0.00016   0.00000  -0.00032  -0.00032   2.05513
   R30        2.53158   0.02213   0.00000   0.02804   0.02804   2.55962
   R31        2.05539  -0.00016   0.00000  -0.00031  -0.00031   2.05508
   R32        2.79253  -0.01942   0.00000  -0.03858  -0.03858   2.75394
   R33        2.05544  -0.00016   0.00000  -0.00032  -0.00032   2.05512
   R34        2.53160   0.02208   0.00000   0.02797   0.02797   2.55958
   R35        2.05540  -0.00016   0.00000  -0.00031  -0.00031   2.05509
   R36        2.79252  -0.01936   0.00000  -0.03847  -0.03847   2.75404
   R37        2.05544  -0.00017   0.00000  -0.00033  -0.00033   2.05511
   R38        2.53159   0.02197   0.00000   0.02784   0.02784   2.55943
   R39        2.05541  -0.00015   0.00000  -0.00030  -0.00030   2.05511
   R40        2.79255  -0.01923   0.00000  -0.03822  -0.03822   2.75433
   R41        2.05543  -0.00017   0.00000  -0.00034  -0.00034   2.05509
   R42        2.53154   0.02172   0.00000   0.02751   0.02751   2.55906
   R43        2.05541  -0.00015   0.00000  -0.00029  -0.00029   2.05512
   R44        2.79261  -0.01890   0.00000  -0.03757  -0.03757   2.75504
   R45        2.05543  -0.00018   0.00000  -0.00036  -0.00036   2.05508
   R46        2.53149   0.02099   0.00000   0.02658   0.02658   2.55808
   R47        2.05542  -0.00013   0.00000  -0.00026  -0.00026   2.05516
   R48        2.79268  -0.01791   0.00000  -0.03559  -0.03559   2.75709
   R49        2.05543  -0.00020   0.00000  -0.00039  -0.00039   2.05504
   R50        2.53136   0.01878   0.00000   0.02378   0.02378   2.55514
   R51        2.05546  -0.00012   0.00000  -0.00024  -0.00024   2.05521
   R52        2.79176  -0.01417   0.00000  -0.02813  -0.02813   2.76363
   R53        2.05546  -0.00026   0.00000  -0.00051  -0.00051   2.05495
   R54        2.52275   0.01191   0.00000   0.01484   0.01484   2.53759
   R55        2.05367   0.00063   0.00000   0.00123   0.00123   2.05490
   R56        2.05233  -0.00018   0.00000  -0.00036  -0.00036   2.05197
   R57        2.05078   0.00017   0.00000   0.00032   0.00032   2.05111
    A1        2.09382   0.00446   0.00000   0.01691   0.01691   2.11073
    A2        2.11474   0.00027   0.00000   0.00104   0.00104   2.11578
    A3        2.07462  -0.00473   0.00000  -0.01795  -0.01795   2.05667
    A4        2.11406   0.01184   0.00000   0.03484   0.03484   2.14890
    A5        2.07617  -0.00044   0.00000   0.00339   0.00339   2.07956
    A6        2.09296  -0.01140   0.00000  -0.03823  -0.03823   2.05473
    A7        2.11030   0.01219   0.00000   0.03587   0.03587   2.14617
    A8        2.08156  -0.00964   0.00000  -0.03141  -0.03141   2.05015
    A9        2.09132  -0.00254   0.00000  -0.00446  -0.00446   2.08686
   A10        2.11117   0.01267   0.00000   0.03729   0.03729   2.14846
   A11        2.09026  -0.00302   0.00000  -0.00606  -0.00606   2.08420
   A12        2.08175  -0.00965   0.00000  -0.03123  -0.03123   2.05052
   A13        2.11041   0.01249   0.00000   0.03674   0.03674   2.14715
   A14        2.08203  -0.00957   0.00000  -0.03100  -0.03100   2.05103
   A15        2.09074  -0.00292   0.00000  -0.00575  -0.00575   2.08500
   A16        2.11145   0.01257   0.00000   0.03697   0.03697   2.14843
   A17        2.09028  -0.00295   0.00000  -0.00585  -0.00585   2.08443
   A18        2.08145  -0.00961   0.00000  -0.03112  -0.03112   2.05033
   A19        2.11007   0.01265   0.00000   0.03721   0.03721   2.14728
   A20        2.08224  -0.00966   0.00000  -0.03126  -0.03126   2.05097
   A21        2.09088  -0.00299   0.00000  -0.00595  -0.00595   2.08493
   A22        2.11179   0.01250   0.00000   0.03679   0.03679   2.14858
   A23        2.09014  -0.00292   0.00000  -0.00576  -0.00576   2.08438
   A24        2.08125  -0.00958   0.00000  -0.03103  -0.03103   2.05022
   A25        2.10975   0.01273   0.00000   0.03747   0.03747   2.14722
   A26        2.08241  -0.00970   0.00000  -0.03138  -0.03138   2.05103
   A27        2.09103  -0.00304   0.00000  -0.00609  -0.00609   2.08494
   A28        2.11208   0.01245   0.00000   0.03664   0.03664   2.14872
   A29        2.09003  -0.00290   0.00000  -0.00569  -0.00569   2.08434
   A30        2.08108  -0.00955   0.00000  -0.03095  -0.03095   2.05013
   A31        2.10954   0.01278   0.00000   0.03761   0.03761   2.14715
   A32        2.08251  -0.00972   0.00000  -0.03143  -0.03143   2.05108
   A33        2.09114  -0.00306   0.00000  -0.00618  -0.00618   2.08496
   A34        2.11221   0.01243   0.00000   0.03656   0.03656   2.14877
   A35        2.09000  -0.00289   0.00000  -0.00567  -0.00567   2.08432
   A36        2.08097  -0.00953   0.00000  -0.03089  -0.03089   2.05009
   A37        2.10953   0.01279   0.00000   0.03764   0.03764   2.14717
   A38        2.08249  -0.00972   0.00000  -0.03142  -0.03142   2.05107
   A39        2.09117  -0.00308   0.00000  -0.00622  -0.00622   2.08495
   A40        2.11211   0.01243   0.00000   0.03658   0.03658   2.14869
   A41        2.09007  -0.00290   0.00000  -0.00571  -0.00571   2.08436
   A42        2.08100  -0.00953   0.00000  -0.03087  -0.03087   2.05013
   A43        2.10977   0.01276   0.00000   0.03756   0.03756   2.14732
   A44        2.08233  -0.00969   0.00000  -0.03135  -0.03135   2.05098
   A45        2.09109  -0.00307   0.00000  -0.00620  -0.00620   2.08488
   A46        2.11176   0.01247   0.00000   0.03670   0.03670   2.14846
   A47        2.09025  -0.00293   0.00000  -0.00579  -0.00579   2.08446
   A48        2.08118  -0.00955   0.00000  -0.03091  -0.03091   2.05027
   A49        2.11022   0.01270   0.00000   0.03737   0.03737   2.14760
   A50        2.08206  -0.00966   0.00000  -0.03125  -0.03125   2.05081
   A51        2.09090  -0.00304   0.00000  -0.00613  -0.00613   2.08478
   A52        2.11123   0.01254   0.00000   0.03689   0.03689   2.14812
   A53        2.09048  -0.00296   0.00000  -0.00589  -0.00589   2.08459
   A54        2.08147  -0.00958   0.00000  -0.03100  -0.03100   2.05047
   A55        2.11077   0.01263   0.00000   0.03716   0.03716   2.14793
   A56        2.08175  -0.00962   0.00000  -0.03113  -0.03113   2.05061
   A57        2.09067  -0.00301   0.00000  -0.00602  -0.00602   2.08465
   A58        2.11071   0.01259   0.00000   0.03706   0.03706   2.14777
   A59        2.09069  -0.00299   0.00000  -0.00596  -0.00596   2.08473
   A60        2.08178  -0.00961   0.00000  -0.03110  -0.03110   2.05068
   A61        2.11122   0.01257   0.00000   0.03699   0.03699   2.14821
   A62        2.08151  -0.00960   0.00000  -0.03106  -0.03106   2.05045
   A63        2.09046  -0.00297   0.00000  -0.00593  -0.00593   2.08453
   A64        2.11037   0.01260   0.00000   0.03709   0.03709   2.14746
   A65        2.09082  -0.00298   0.00000  -0.00595  -0.00595   2.08487
   A66        2.08200  -0.00962   0.00000  -0.03114  -0.03114   2.05086
   A67        2.11141   0.01256   0.00000   0.03696   0.03696   2.14837
   A68        2.08143  -0.00960   0.00000  -0.03107  -0.03107   2.05036
   A69        2.09035  -0.00296   0.00000  -0.00589  -0.00589   2.08446
   A70        2.11033   0.01250   0.00000   0.03678   0.03678   2.14711
   A71        2.09082  -0.00293   0.00000  -0.00579  -0.00579   2.08502
   A72        2.08204  -0.00957   0.00000  -0.03099  -0.03099   2.05105
   A73        2.11132   0.01264   0.00000   0.03720   0.03720   2.14853
   A74        2.08165  -0.00963   0.00000  -0.03117  -0.03117   2.05047
   A75        2.09022  -0.00301   0.00000  -0.00603  -0.00603   2.08418
   A76        2.11016   0.01221   0.00000   0.03593   0.03593   2.14609
   A77        2.09139  -0.00256   0.00000  -0.00449  -0.00449   2.08690
   A78        2.08163  -0.00965   0.00000  -0.03144  -0.03144   2.05020
   A79        2.11415   0.01182   0.00000   0.03479   0.03479   2.14894
   A80        2.09290  -0.01139   0.00000  -0.03820  -0.03820   2.05469
   A81        2.07614  -0.00043   0.00000   0.00342   0.00342   2.07955
   A82        2.11477   0.00027   0.00000   0.00103   0.00103   2.11580
   A83        2.09377   0.00446   0.00000   0.01693   0.01693   2.11070
   A84        2.07464  -0.00473   0.00000  -0.01796  -0.01796   2.05668
    D1       -3.14158  -0.00000   0.00000  -0.00000  -0.00000  -3.14158
    D2       -0.00000   0.00000   0.00000   0.00000   0.00000  -0.00000
    D3        0.00000   0.00000   0.00000   0.00000   0.00000   0.00000
    D4        3.14158   0.00000   0.00000   0.00000   0.00000   3.14159
    D5        3.14154   0.00000   0.00000   0.00001   0.00001   3.14155
    D6       -0.00003   0.00000   0.00000   0.00000   0.00000  -0.00003
    D7       -0.00004   0.00000   0.00000   0.00000   0.00000  -0.00003
    D8        3.14158  -0.00000   0.00000  -0.00000  -0.00000   3.14158
    D9       -3.14155  -0.00000   0.00000  -0.00001  -0.00001  -3.14156
   D10        0.00001   0.00000   0.00000   0.00000   0.00000   0.00001
   D11        0.00001  -0.00000   0.00000  -0.00000  -0.00000   0.00001
   D12        3.14158   0.00000   0.00000   0.00001   0.00001   3.14158
   D13        3.14151   0.00000   0.00000   0.00001   0.00001   3.14152
   D14       -0.00006   0.00000   0.00000   0.00001   0.00001  -0.00005
   D15       -0.00006   0.00000   0.00000   0.00001   0.00001  -0.00005
   D16        3.14157  -0.00000   0.00000  -0.00000  -0.00000   3.14156
   D17       -3.14155  -0.00000   0.00000  -0.00001  -0.00001  -3.14156
   D18        0.00002  -0.00000   0.00000  -0.00000  -0.00000   0.00001
   D19        0.00001  -0.00000   0.00000  -0.00000  -0.00000   0.00001
   D20        3.14158   0.00000   0.00000   0.00001   0.00001   3.14158
   D21        3.14155   0.00000   0.00000   0.00001   0.00001   3.14156
   D22       -0.00004   0.00000   0.00000   0.00001   0.00001  -0.00003
   D23       -0.00002  -0.00000   0.00000  -0.00000  -0.00000  -0.00002
   D24        3.14158  -0.00000   0.00000  -0.00000  -0.00000   3.14158
   D25        3.14158   0.00000   0.00000   0.00000   0.00000   3.14158
   D26        0.00001  -0.00000   0.00000  -0.00000  -0.00000   0.00001
   D27       -0.00001   0.00000   0.00000   0.00000   0.00000  -0.00001
   D28       -3.14158  -0.00000   0.00000  -0.00000  -0.00000  -3.14158
   D29       -3.14149  -0.00000   0.00000  -0.00002  -0.00002  -3.14150
   D30        0.00004   0.00000   0.00000   0.00000   0.00000   0.00004
   D31        0.00008  -0.00000   0.00000  -0.00001  -0.00001   0.00007
   D32       -3.14157   0.00000   0.00000   0.00001   0.00001  -3.14157
   D33        3.14149   0.00000   0.00000   0.00002   0.00002   3.14151
   D34       -0.00001  -0.00000   0.00000  -0.00000  -0.00000  -0.00001
   D35       -0.00004   0.00000   0.00000   0.00000   0.00000  -0.00004
   D36       -3.14154  -0.00000   0.00000  -0.00002  -0.00002  -3.14156
   D37       -3.14129  -0.00000   0.00000  -0.00005  -0.00005  -3.14134
   D38        0.00017  -0.00000   0.00000  -0.00001  -0.00001   0.00016
   D39        0.00021  -0.00000   0.00000  -0.00003  -0.00003   0.00018
   D40       -3.14152   0.00000   0.00000   0.00001   0.00001  -3.14150
   D41        3.14140   0.00000   0.00000   0.00004   0.00004   3.14144
   D42       -0.00004  -0.00000   0.00000  -0.00000  -0.00000  -0.00004
   D43       -0.00006   0.00000   0.00000   0.00000   0.00000  -0.00005
   D44       -3.14149  -0.00000   0.00000  -0.00004  -0.00004  -3.14153
   D45       -3.14114  -0.00001   0.00000  -0.00008  -0.00008  -3.14121
   D46        0.00028  -0.00000   0.00000  -0.00003  -0.00003   0.00025
   D47        0.00030  -0.00000   0.00000  -0.00003  -0.00003   0.00026
   D48       -3.14147   0.00000   0.00000   0.00002   0.00002  -3.14145
   D49        3.14137   0.00000   0.00000   0.00005   0.00005   3.14142
   D50       -0.00006   0.00000   0.00000   0.00000   0.00000  -0.00006
   D51       -0.00005   0.00000   0.00000   0.00000   0.00000  -0.00005
   D52       -3.14148  -0.00000   0.00000  -0.00005  -0.00005  -3.14152
   D53       -3.14115  -0.00001   0.00000  -0.00007  -0.00007  -3.14123
   D54        0.00030  -0.00000   0.00000  -0.00004  -0.00004   0.00027
   D55        0.00027  -0.00000   0.00000  -0.00003  -0.00003   0.00025
   D56       -3.14146   0.00000   0.00000   0.00001   0.00001  -3.14144
   D57        3.14144   0.00000   0.00000   0.00003   0.00003   3.14147
   D58       -0.00006   0.00000   0.00000   0.00000   0.00000  -0.00005
   D59       -0.00001  -0.00000   0.00000  -0.00000  -0.00000  -0.00002
   D60       -3.14151  -0.00000   0.00000  -0.00003  -0.00003  -3.14154
   D61       -3.14139  -0.00000   0.00000  -0.00003  -0.00003  -3.14143
   D62        0.00018  -0.00000   0.00000  -0.00003  -0.00003   0.00015
   D63        0.00011  -0.00000   0.00000  -0.00000  -0.00000   0.00010
   D64       -3.14150   0.00000   0.00000  -0.00000  -0.00000  -3.14150
   D65       -3.14156  -0.00000   0.00000  -0.00001  -0.00001  -3.14157
   D66       -0.00002   0.00000   0.00000   0.00000   0.00000  -0.00002
   D67        0.00005  -0.00000   0.00000  -0.00001  -0.00001   0.00004
   D68        3.14159   0.00000   0.00000   0.00000   0.00000   3.14159
   D69        3.14139   0.00000   0.00000   0.00004   0.00004   3.14143
   D70       -0.00006  -0.00000   0.00000  -0.00001  -0.00001  -0.00007
   D71       -0.00015   0.00000   0.00000   0.00003   0.00003  -0.00013
   D72        3.14158  -0.00000   0.00000  -0.00002  -0.00002   3.14156
   D73       -3.14135  -0.00000   0.00000  -0.00005  -0.00005  -3.14140
   D74        0.00004  -0.00000   0.00000   0.00000   0.00000   0.00004
   D75        0.00010  -0.00000   0.00000  -0.00001  -0.00001   0.00009
   D76        3.14149   0.00000   0.00000   0.00004   0.00004   3.14153
   D77        3.14099   0.00001   0.00000   0.00011   0.00010   3.14110
   D78       -0.00033   0.00000   0.00000   0.00003   0.00003  -0.00030
   D79       -0.00040   0.00000   0.00000   0.00005   0.00005  -0.00035
   D80        3.14147  -0.00000   0.00000  -0.00003  -0.00003   3.14144
   D81       -3.14120  -0.00001   0.00000  -0.00009  -0.00009  -3.14128
   D82        0.00009  -0.00000   0.00000  -0.00000  -0.00000   0.00009
   D83        0.00012  -0.00000   0.00000  -0.00001  -0.00001   0.00011
   D84        3.14141   0.00001   0.00000   0.00007   0.00007   3.14148
   D85        3.14080   0.00001   0.00000   0.00014   0.00014   3.14093
   D86       -0.00049   0.00000   0.00000   0.00005   0.00005  -0.00044
   D87       -0.00049   0.00000   0.00000   0.00005   0.00005  -0.00044
   D88        3.14141  -0.00000   0.00000  -0.00004  -0.00003   3.14137
   D89       -3.14119  -0.00001   0.00000  -0.00009  -0.00009  -3.14128
   D90        0.00012  -0.00000   0.00000  -0.00001  -0.00001   0.00011
   D91        0.00009  -0.00000   0.00000  -0.00000  -0.00000   0.00009
   D92        3.14140   0.00001   0.00000   0.00007   0.00008   3.14148
   D93        3.14092   0.00001   0.00000   0.00012   0.00011   3.14103
   D94       -0.00045   0.00000   0.00000   0.00005   0.00005  -0.00040
   D95       -0.00039   0.00000   0.00000   0.00003   0.00003  -0.00036
   D96        3.14142  -0.00000   0.00000  -0.00003  -0.00003   3.14139
   D97       -3.14134  -0.00000   0.00000  -0.00005  -0.00005  -3.14139
   D98        0.00009  -0.00000   0.00000  -0.00001  -0.00001   0.00008
   D99        0.00003   0.00000   0.00000   0.00001   0.00001   0.00003
   D100       3.14146   0.00000   0.00000   0.00005   0.00005   3.14151
   D101       3.14127   0.00000   0.00000   0.00005   0.00005   3.14132
   D102      -0.00024   0.00000   0.00000   0.00003   0.00003  -0.00021
   D103      -0.00016   0.00000   0.00000   0.00001   0.00001  -0.00016
   D104       3.14151  -0.00000   0.00000  -0.00002  -0.00002   3.14150
   D105       0.00002   0.00000   0.00000   0.00000   0.00000   0.00003
   D106      -3.14153  -0.00000   0.00000  -0.00002  -0.00002  -3.14154
   D107       3.14153   0.00000   0.00000   0.00003   0.00003   3.14156
   D108      -0.00002   0.00000   0.00000   0.00001   0.00001  -0.00001
         Item               Value     Threshold  Converged?
 Maximum Force            0.022150     0.000450     NO 
 RMS     Force            0.008255     0.000300     NO 
 Maximum Displacement     0.318443     0.001800     NO 
 RMS     Displacement     0.081161     0.001200     NO 
 Predicted change in Energy=-2.442684D-02
 GradGradGradGradGradGradGradGradGradGradGradGradGradGradGradGradGradGrad

 Stoichiometry    C28H30
 Framework group  C1[X(C28H30)]
 Deg. of freedom   168
 Full point group                 C1      NOp   1
 Largest Abelian subgroup         C1      NOp   1
 Largest concise Abelian subgroup C1      NOp   1
                         Standard orientation:                         
 ---------------------------------------------------------------------
 Center     Atomic      Atomic             Coordinates (Angstroms)
 Number     Number       Type             X           Y           Z
 ---------------------------------------------------------------------
      1          6           0      -16.655642    0.248331   -0.001458
      2          6           0      -15.480834   -0.402081   -0.001187
      3          6           0      -14.188453    0.282398   -0.000938
      4          6           0      -13.007315   -0.375736   -0.000616
      5          6           0      -11.716419    0.304169   -0.000330
      6          6           0      -10.534797   -0.356264    0.000074
      7          6           0       -9.243975    0.321503    0.000397
      8          6           0       -8.062666   -0.340528    0.000841
      9          6           0       -6.771290    0.335399    0.001154
     10          6           0       -5.590715   -0.328334    0.001497
     11          6           0       -4.298457    0.345582    0.001712
     12          6           0       -3.118854   -0.320047    0.001767
     13          6           0       -1.825566    0.351735    0.001794
     14          6           0       -0.647000   -0.315804    0.001419
     15          6           0        0.647280    0.353995    0.001230
     16          6           0        1.824939   -0.315160    0.000440
     17          6           0        3.119981    0.353169    0.000105
     18          6           0        4.297045   -0.316987   -0.000874
     19          6           0        5.592483    0.350686   -0.001184
     20          6           0        6.769348   -0.319663   -0.001975
     21          6           0        8.064813    0.348286   -0.002054
     22          6           0        9.241800   -0.321448   -0.002280
     23          6           0       10.537098    0.347649   -0.001983
[...]
 .00000002,0.00000018,0.,0.,0.00000015,0.,0.00000002,0.00000013,0.,0.,0
 .00000013,0.,0.00000002,0.00000017,0.,0.,0.00000019,0.,0.00000003,0.00
 000028,0.,0.00000001,0.00000040,0.00000001,0.00000004,0.00000047,-0.00
 000001,0.,0.00000038,0.00000002,0.00000005,0.00000092,-0.00000001,0.00
 000007,0.00000195,0.00000004,0.00000005,0.00000157,-0.00000013,-0.0000
 0058,-0.00000792,0.00000011,0.00000003,0.00000359,-0.00000023,0.000000
 89,0.00001832,0.00000155,-0.00000042,0.00000572,-0.00001283,0.00001937
 ,0.00034892,0.00005716,-0.00002843,0.00026875,0.00018752,0.00054258,0.
 00911366,-0.00224321,-0.01942878,0.02618151,0.00000070,-0.00000066,0.0
 0000002,-0.00000004,0.00000125,-0.00000008,-0.00000014,-0.00000105,0.0
 0000006,0.00000018,0.00000131,-0.00000009,-0.00000016,-0.00000112,0.00
 000007,0.00000030,0.00000133,-0.00000009,-0.00000039,-0.00000118,0.000
 00007,0.00000053,0.00000144,-0.00000009,-0.00000076,-0.00000131,0.0000
 0009,0.00000121,0.00000143,-0.00000009,-0.00000162,-0.00000131,0.00000
 009,0.00000222,0.00000138,-0.00000009,-0.00000295,-0.00000130,0.000000
 10,0.00000384,0.00000122,-0.00000010,-0.00000512,-0.00000122,0.0000001
 1,0.00000657,0.00000079,-0.00000009,-0.00000893,-0.00000090,0.00000011
 ,0.00001156,-0.00000027,-0.00000006,-0.00001556,0.00000007,0.00000009,
 0.00002123,-0.00000286,0.00000002,-0.00002764,0.00000146,0.00000002,0.
 00006087,-0.00001137,0.00000040,-0.00005723,-0.00008831,0.00000553,-0.
 00007433,-0.00008688,0.00000442,0.00164316,0.00143364,-0.00010683,0.00
 458590,0.02644348,-0.00159987,-0.06170344,-0.03067327,0.00196961,-0.00
 125439,-0.03191497,0.00195954,0.00000018,0.00000003,0.,-0.00000004,-0.
 00000002,0.,0.,-0.00000023,0.00000002,0.,-0.00000001,0.,0.,-0.00000024
 ,0.00000002,0.,0.,0.,0.,-0.00000025,0.00000002,0.,-0.00000002,0.,0.,-0
 .00000024,0.00000001,-0.00000002,-0.00000007,0.,0.,-0.00000028,0.00000
 001,-0.00000003,-0.00000007,0.,0.00000001,-0.00000034,0.00000002,-0.00
 000005,-0.00000010,0.,0.00000003,-0.00000039,0.00000002,-0.00000010,-0
 .00000014,0.,0.00000007,-0.00000045,0.00000003,-0.00000021,-0.00000022
 ,0.00000002,0.00000012,-0.00000056,0.00000004,-0.00000045,-0.00000043,
 0.00000004,0.00000053,-0.00000098,0.00000006,-0.00000336,-0.00000101,0
 .00000011,0.00000830,-0.00000345,0.00000019,-0.00005103,-0.00001900,0.
 00000153,0.00004286,-0.00024308,0.00001503,-0.00028846,-0.00089739,0.0
 0005715,-0.00389753,0.00242125,-0.00009819,0.06463308,0.00000888,-0.00
 000644,0.00000031,-0.00000327,0.00001416,-0.00000085,0.00000277,-0.000
 01254,0.00000073,-0.00000126,0.00001519,-0.00000091,0.00000190,-0.0000
 1277,0.00000075,-0.00000104,0.00001659,-0.00000101,0.00000185,-0.00001
 389,0.00000082,-0.00000070,0.00001820,-0.00000109,0.00000161,-0.000015
 31,0.00000091,-0.00000008,0.00002044,-0.00000124,0.00000127,-0.0000172
 1,0.00000102,0.00000075,0.00002342,-0.00000143,0.00000074,-0.00001983,
 0.00000118,0.00000207,0.00002734,-0.00000168,-0.00000020,-0.00002362,0
 .00000139,0.00000439,0.00003268,-0.00000202,-0.00000220,-0.00002944,0.
 00000172,0.00000908,0.00004031,-0.00000250,-0.00000706,-0.00003935,0.0
 0000237,0.00002075,0.00005188,-0.00000351,-0.00001965,-0.00006159,0.00
 000314,0.00004547,0.00007470,-0.00000384,-0.00001231,-0.00008736,0.000
 00406,0.00042699,0.00055128,-0.00004796,-0.00181292,0.00085409,-0.0001
 3907,-0.00366474,-0.01686584,0.00121862,-0.03204509,-0.32135338,0.0170
 1525,-0.00001396,-0.00966025,0.00089417,0.00000180,-0.00000008,0.,-0.0
 0000038,0.00000022,0.,-0.00000023,-0.00000231,0.00000015,-0.00000004,-
 0.00000023,0.00000002,0.,-0.00000262,0.00000017,-0.00000007,-0.0000004
 7,0.00000004,0.00000006,-0.00000295,0.00000019,-0.00000005,-0.00000061
 ,0.00000005,0.00000011,-0.00000333,0.00000020,-0.00000006,-0.00000076,
 0.00000005,0.00000015,-0.00000387,0.00000024,-0.00000008,-0.00000098,0
 .00000007,0.00000021,-0.00000456,0.00000028,-0.00000008,-0.00000124,0.
 00000009,0.00000030,-0.00000543,0.00000034,-0.00000007,-0.00000151,0.0
 0000012,0.00000042,-0.00000654,0.00000042,0.00000005,-0.00000173,0.000
 00016,0.00000056,-0.00000796,0.00000053,0.00000052,-0.00000168,0.00000
 019,0.00000049,-0.00000964,0.00000065,0.00000264,-0.00000041,0.0000002
 6,-0.00000204,-0.00001169,0.00000104,0.00003874,0.00000499,0.00000010,
 -0.00025435,0.00010089,0.00000201,0.00104380,0.00068051,-0.00003425,0.
 00260852,-0.00060867,0.00024075,0.03532999,0.34427553,-0.00000054,0.00
 000037,-0.00000041,0.00000019,-0.00000085,-0.00000007,-0.00000015,0.00
 000075,-0.00000015,0.00000007,-0.00000093,-0.00000011,-0.00000012,0.00
 000078,-0.00000019,0.00000006,-0.00000102,-0.00000012,-0.00000010,0.00
 000084,-0.00000016,0.00000005,-0.00000111,-0.00000003,-0.00000010,0.00
 000093,-0.00000013,0.00000001,-0.00000125,-0.00000003,-0.00000009,0.00
 000105,-0.00000021,-0.00000006,-0.00000143,-0.00000009,-0.00000003,0.0
 0000118,-0.00000034,-0.00000015,-0.00000167,-0.00000016,0.00000004,0.0
 0000140,-0.00000052,-0.00000031,-0.00000199,-0.00000049,0.00000019,0.0
 0000172,-0.00000109,-0.00000063,-0.00000246,-0.00000023,0.00000052,0.0
 0000233,-0.00000079,-0.00000143,-0.00000335,-0.00000413,0.00000131,0.0
 0000302,-0.00001147,-0.00000302,-0.00000350,0.00001562,0.00000096,0.00
 000455,-0.00002128,-0.00002648,-0.00004473,-0.00019885,0.00008840,-0.0
 0015944,-0.00163873,0.00021054,0.00102999,0.00295560,0.00205210,0.0170
 0665,-0.04275282,0.00004134,0.00109405,0.00514289,-0.00000011,0.000000
 01,0.00000014,0.00000002,0.,0.00000018,0.00000002,0.00000015,0.0000001
 4,0.,0.00000002,0.00000015,0.,0.00000017,0.00000014,0.,0.00000003,0.00
 000017,0.,0.00000018,0.00000015,0.,0.00000004,0.00000013,0.,0.00000020
 ,0.00000007,0.,0.00000005,0.00000008,0.,0.00000024,0.00000009,0.,0.000
 00006,0.00000014,-0.00000001,0.00000029,0.00000016,0.,0.00000009,0.000
 00025,-0.00000001,0.00000035,0.00000028,0.,0.00000012,0.00000043,-0.00
 000002,0.00000043,0.00000048,0.,0.00000015,0.00000084,-0.00000003,0.00
 000054,0.00000090,-0.00000002,0.00000020,0.00000153,-0.00000002,0.0000
 0066,0.00000116,-0.00000011,0.00000028,0.00000416,0.00000010,0.0000010
 5,0.00000536,-0.00000194,0.00000046,0.00001066,0.00001570,0.00000193,0
 .00010749,-0.00005958,-0.00002209,0.00022135,-0.00010945,0.00024192,0.
 00365309,-0.00235827,-0.01928074,0.02847929,0.00000150,-0.00000101,0.0
 0000004,-0.00000055,0.00000225,-0.00000014,0.00000046,-0.00000192,0.00
 000011,-0.00000027,0.00000238,-0.00000014,0.00000038,-0.00000190,0.000
 00011,-0.00000022,0.00000249,-0.00000015,0.00000037,-0.00000198,0.0000
 0012,-0.00000043,0.00000277,-0.00000016,0.00000062,-0.00000219,0.00000
 013,-0.00000051,0.00000300,-0.00000018,0.00000079,-0.00000232,0.000000
 14,-0.00000072,0.00000330,-0.00000019,0.00000105,-0.00000249,0.0000001
 4,-0.00000104,0.00000366,-0.00000022,0.00000150,-0.00000269,0.00000015
 ,-0.00000159,0.00000407,-0.00000023,0.00000226,-0.00000291,0.00000015,
 -0.00000252,0.00000442,-0.00000029,0.00000348,-0.00000313,0.00000017,-
 0.00000358,0.00000459,-0.00000010,0.00000562,-0.00000291,0.00000008,-0
 .00000446,0.00000250,-0.00000077,0.00002533,0.00000050,0.00000005,0.00
 003672,0.00007522,-0.00000274,-0.00013617,0.00020471,-0.00001190,0.001
 78878,-0.00183095,0.00005276,-0.00009910,-0.03085538,0.00188541,-0.065
 56195,-0.03991795,0.00260315,0.00000023,0.00000001,0.,-0.00000006,0.,0
 .,-0.00000004,-0.00000039,0.00000003,-0.00000001,-0.00000005,0.,-0.000
 00001,-0.00000045,0.00000003,-0.00000001,-0.00000008,0.,0.,-0.00000050
 ,0.00000003,-0.00000002,-0.00000011,0.,0.,-0.00000051,0.00000003,-0.00
 000002,-0.00000017,0.,0.,-0.00000057,0.00000003,-0.00000002,-0.0000001
 9,0.00000001,0.,-0.00000067,0.00000004,-0.00000002,-0.00000023,0.00000
 001,0.,-0.00000075,0.00000005,0.,-0.00000028,0.00000002,-0.00000003,-0
 .00000083,0.00000005,0.00000005,-0.00000030,0.00000002,-0.00000011,-0.
 00000085,0.00000006,0.00000017,-0.00000020,0.00000002,-0.00000040,-0.0
 0000060,0.00000005,0.00000129,0.00000039,-0.00000009,-0.00000320,0.000
 00093,0.,0.00001035,0.00000309,-0.00000015,-0.00005031,0.00003343,-0.0
 0000167,0.00013121,0.00023478,-0.00001282,-0.00023316,0.00094981,-0.00
 005383,-0.00465729,-0.00162019,0.00019534,0.06220838,-0.00000055,0.000
 00049,-0.00000006,0.00000045,-0.00000121,0.00000005,-0.00000038,0.0000
 0095,-0.00000006,0.00000042,-0.00000128,0.00000006,-0.00000070,0.00000
 098,-0.00000005,0.00000099,-0.00000153,0.00000007,-0.00000154,0.000001
 06,-0.00000006,0.00000136,-0.00000157,0.00000008,-0.00000197,0.0000009
 8,-0.00000005,0.00000234,-0.00000191,0.00000009,-0.00000314,0.00000100
 ,-0.00000005,0.00000375,-0.00000234,0.00000011,-0.00000520,0.00000105,
 -0.00000004,0.00000636,-0.00000300,0.00000010,-0.00000877,0.00000105,-
 0.00000004,0.00001095,-0.00000404,0.00000022,-0.00001525,0.00000089,-0
 .00000003,0.00001941,-0.00000587,-0.00000013,-0.00002783,0.00000034,0.
 00000014,0.00003645,-0.00000940,0.00000176,-0.00005714,-0.00000092,-0.
 00000014,0.00007330,-0.00002261,-0.00000537,-0.00013060,-0.00000248,0.
 00000323,0.00011855,-0.00005776,0.00002201,-0.00034718,0.00042951,-0.0
 0002793,0.00221493,0.00097521,-0.00051518,-0.00072170,-0.00982336,0.00
 087784,-0.04336097,-0.33047157,0.01814765,-0.00000033,0.00000006,0.000
 00001,0.,-0.00000004,0.00000001,-0.00000002,0.00000021,0.,-0.00000002,
 0.00000003,0.,0.,0.00000023,0.,0.00000002,0.00000004,0.,0.00000002,0.0
 0000026,0.,0.00000006,0.00000011,0.,0.00000004,0.00000034,-0.00000002,
 0.00000007,0.00000014,0.,0.00000002,0.00000045,-0.00000002,0.00000008,
 0.00000027,0.,0.,0.00000053,-0.00000002,0.00000011,0.00000036,0.,-0.00
 000001,0.00000069,-0.00000002,0.00000016,0.00000052,0.,-0.00000005,0.0
 0000094,-0.00000002,0.00000028,0.00000079,-0.00000002,-0.00000013,0.00
 000136,-0.00000001,0.00000058,0.00000135,0.00000007,-0.00000033,0.0000
 0221,-0.00000002,0.00000161,0.00000251,-0.00000070,-0.00000093,0.00000
 465,-0.00000002,0.00000500,0.00000407,0.00000069,-0.00001477,0.0000079
 2,-0.00000019,0.00022073,-0.00001502,0.00001987,-0.00097160,0.00054530
 ,-0.00000920,-0.00191790,0.00086691,0.00061950,0.04999407,0.34967039,0
 .00000002,-0.00000005,-0.00000042,-0.00000005,0.00000007,-0.00000014,0
 .00000005,-0.00000007,-0.00000012,-0.00000003,0.00000005,-0.00000018,0
 .00000004,-0.00000005,-0.00000016,-0.00000006,0.00000007,-0.00000021,0
 .00000009,-0.00000006,-0.00000012,-0.00000006,0.00000007,-0.00000012,0
 .00000009,-0.00000004,-0.00000008,-0.00000011,0.00000008,-0.00000014,0
 .00000016,-0.00000004,-0.00000015,-0.00000021,0.00000012,-0.00000014,0
 .00000029,-0.00000007,-0.00000028,-0.00000038,0.00000012,-0.00000056,0
 .00000051,-0.00000007,-0.00000035,-0.00000064,0.00000026,0.00000052,0.
 00000090,-0.00000009,-0.00000100,-0.00000120,-0.00000004,-0.00000598,0
 .00000165,-0.00000002,-0.00000034,-0.00000205,0.00000197,0.00002349,0.
 00000338,-0.00000047,-0.00000905,-0.00000503,-0.00000494,-0.00010409,0
 .00000792,0.00000243,0.00003754,-0.00000536,0.00002229,0.00031942,0.00
 002128,-0.00003140,-0.00006944,-0.00019050,-0.00048983,-0.00733104,0.0
 0007344,0.00106666,0.00463605,0.00281019,0.01812608,-0.03429110,0.0000
 0002,0.,0.00000016,0.,0.00000002,0.00000019,0.,0.,0.00000017,0.,0.,0.0
 0000017,0.,0.,0.00000017,0.,0.,0.00000018,0.,0.,0.00000018,0.,0.,0.000
 00014,0.,-0.00000002,0.00000010,0.,0.,0.00000009,0.,-0.00000002,0.0000
 0012,0.,-0.00000001,0.00000015,0.,-0.00000002,0.00000020,0.,-0.0000000
 1,0.00000023,0.,-0.00000002,0.00000033,0.,0.,0.00000047,0.00000001,-0.
 00000002,0.00000056,-0.00000001,-0.00000002,0.00000046,0.00000002,-0.0
 0000001,0.00000110,-0.00000002,0.00000007,0.00000252,0.00000004,-0.000
 00002,0.00000188,-0.00000016,-0.00000070,-0.00000901,0.00000010,-0.000
 00004,0.00000422,-0.00000026,0.00000070,0.00001597,0.00000122,-0.00000
 049,0.00000327,-0.00001198,0.00001978,0.00033724,0.00006170,-0.0000212
 4,0.00029183,0.00021324,0.00061764,0.01093130,-0.00325977,-0.02003231,
 0.02295537,-0.00000769,0.00000515,-0.00000027,0.00000375,-0.00001175,0
 .00000069,-0.00000318,0.00001060,-0.00000061,0.00000136,-0.00001249,0.
 00000073,-0.00000159,0.00001042,-0.00000060,0.00000061,-0.00001356,0.0
 0000081,-0.00000155,0.00001103,-0.00000065,0.00000039,-0.00001482,0.00
 000088,-0.00000156,0.00001193,-0.00000071,0.00000080,-0.00001669,0.000
 00100,-0.00000219,0.00001324,-0.00000079,0.00000110,-0.00001903,0.0000
 0113,-0.00000296,0.00001503,-0.00000089,0.00000154,-0.00002205,0.00000
 132,-0.00000406,0.00001747,-0.00000104,0.00000227,-0.00002612,0.000001
 54,-0.00000596,0.00002083,-0.00000122,0.00000352,-0.00003184,0.0000019
 7,-0.00000990,0.00002628,-0.00000155,0.00000409,-0.00004180,0.00000206
 ,-0.00002184,0.00004064,-0.00000225,-0.00001198,-0.00007589,0.00000657
 ,-0.00009331,0.00013853,-0.00000822,-0.00025541,-0.00036269,0.00001433
 ,-0.00063224,0.00133224,-0.00007471,-0.00262298,-0.00422688,0.00034337
 ,-0.01877444,0.02032799,-0.00107853,-0.23916192,0.13650086,-0.00690446
 ,-0.00000136,0.00000014,0.,0.00000022,-0.00000032,0.00000002,0.0000001
 8,0.00000180,-0.00000011,0.00000004,0.00000017,-0.00000001,0.00000004,
 0.00000226,-0.00000014,0.00000012,0.00000042,-0.00000003,0.00000002,0.
 00000258,-0.00000015,0.00000020,0.00000063,-0.00000004,-0.00000002,0.0
 0000289,-0.00000017,0.00000017,0.00000080,-0.00000005,-0.00000009,0.00
 000335,-0.00000020,0.00000019,0.00000109,-0.00000006,-0.00000014,0.000
 00392,-0.00000023,0.00000021,0.00000137,-0.00000008,-0.00000020,0.0000
 0465,-0.00000028,0.00000025,0.00000170,-0.00000010,-0.00000029,0.00000
 560,-0.00000033,0.00000031,0.00000212,-0.00000012,-0.00000041,0.000006
 87,-0.00000041,0.00000048,0.00000263,-0.00000017,-0.00000054,0.0000086
 3,-0.00000050,0.00000090,0.00000282,-0.00000003,0.00000082,0.00001164,
 -0.00000070,0.00000141,-0.00000107,-0.00000041,0.00001600,0.00001728,-
 0.00000098,0.00000531,-0.00007315,0.00000527,0.00013049,0.00012474,-0.
 00001010,0.00102781,-0.00009473,-0.00004418,0.00653728,-0.00512311,0.0
 0028153,0.25387591,-0.00000014,-0.00000009,-0.00000001,0.00000005,0.00
 000018,-0.00000002,-0.00000007,-0.00000002,0.,-0.00000020,0.00000008,0
 .,0.00000041,0.00000004,-0.00000002,-0.00000080,0.00000003,0.,0.000001
 19,0.00000009,-0.00000002,-0.00000122,-0.00000023,0.00000002,0.0000015
 1,0.00000031,-0.00000003,-0.00000197,-0.00000037,0.00000003,0.00000231
 ,0.00000065,-0.00000006,-0.00000304,-0.00000061,0.00000004,0.00000374,
 0.00000110,-0.00000010,-0.00000507,-0.00000095,0.00000012,0.00000631,0
 .00000185,-0.00000017,-0.00000867,-0.00000151,-0.00000007,0.00001092,0
 .00000322,-0.00000024,-0.00001529,-0.00000247,0.00000102,0.00001944,0.
 00000627,-0.00000076,-0.00002896,-0.00000528,-0.00000354,0.00003656,0.
 00001555,-0.00000061,-0.00006738,-0.00001820,0.00002002,0.00006255,0.0
 0006552,-0.00000880,-0.00028133,-0.00012896,-0.00007762,-0.00017521,0.
 00080054,-0.00003322,-0.00210964,-0.00091598,0.00076664,-0.01259070,0.
 01067341,-0.00031188,0.14100998,-0.16402739,0.00710595,0.00000015,-0.0
 0000007,0.,0.00000001,0.00000006,0.,0.00000003,-0.00000008,0.00000001,
 0.00000002,0.00000005,0.,-0.00000003,-0.00000002,0.,0.,0.00000006,0.,-
 0.00000006,0.00000004,0.,-0.00000004,0.00000004,0.,-0.00000009,0.00000
 011,0.,-0.00000002,0.00000005,0.,-0.00000008,0.00000013,0.,-0.00000001
 ,0.00000001,0.,-0.00000009,0.00000019,0.,0.,0.00000002,0.00000001,-0.0
 0000013,0.00000029,0.,0.00000002,0.00000003,0.,-0.00000021,0.00000046,
 0.,0.00000005,0.00000005,0.00000008,-0.00000038,0.00000079,-0.00000001
 ,0.00000018,0.00000009,-0.00000015,-0.00000093,0.00000160,0.00000001,0
 .00000061,0.00000037,0.00000134,-0.00000171,0.00000346,-0.00000016,0.0
 0000012,-0.00000161,-0.00000437,-0.00000654,0.00001063,0.00000092,0.00
 008509,-0.00000848,0.00000872,-0.00037694,0.00039597,-0.00003853,0.000
 23476,0.00122877,-0.00049216,0.02272529,-0.01210028,0.00072371,-0.1485
 2435,0.16400046,0.00000005,-0.00000005,-0.00000039,-0.00000004,0.00000
 007,-0.00000013,0.00000004,-0.00000008,-0.00000010,0.,0.00000006,-0.00
 000017,-0.00000002,-0.00000007,-0.00000014,0.00000004,0.00000008,-0.00
 000019,-0.00000005,-0.00000008,-0.00000009,0.00000008,0.00000010,-0.00
 000010,-0.00000009,-0.00000009,-0.00000004,0.00000013,0.00000012,-0.00
 000006,-0.00000014,-0.00000012,-0.00000011,0.00000018,0.00000014,-0.00
 000030,-0.00000021,-0.00000017,-0.00000014,0.00000030,0.00000022,0.000
 00046,-0.00000036,-0.00000025,-0.00000046,0.00000049,0.00000006,-0.000
 00348,-0.00000061,-0.00000030,0.00000031,0.00000098,0.00000112,0.00001
 288,-0.00000114,-0.00000080,-0.00000434,0.00000128,-0.00000345,-0.0000
 6696,-0.00000198,-0.00000064,0.00000923,0.00000606,0.00002007,0.000306
 58,-0.00000366,-0.00000927,-0.00007383,0.00000943,-0.00007711,-0.00144
 454,0.00001594,-0.00004268,0.00023224,0.00021607,0.00077991,0.01156565
 ,0.00090087,-0.00051813,0.00420011,-0.00717560,0.00713420,-0.03154097,
 0.,0.00000001,0.00000015,0.,0.,0.00000018,0.,0.,0.00000015,0.,0.,0.000
 00015,0.,0.,0.00000015,0.,0.,0.00000016,0.,-0.00000002,0.00000016,0.,0
 .,0.00000012,0.,-0.00000003,0.00000008,0.,0.,0.00000006,0.,-0.00000003
 ,0.00000008,0.,0.,0.00000010,0.,-0.00000003,0.00000014,0.,0.,0.0000002
 2,0.00000002,-0.00000003,0.00000023,0.,0.,0.00000012,0.00000002,-0.000
 00004,0.00000040,0.,0.00000006,0.00000133,0.00000003,-0.00000006,0.000
 00055,-0.00000003,-0.00000016,-0.00000231,0.00000007,-0.00000004,0.000
 00175,0.00000010,0.00000132,0.00002265,0.00000010,-0.00000025,0.000000
 64,-0.00000048,-0.00000437,-0.00007403,0.00000045,0.00000077,0.0000252
 3,-0.00000424,0.00000972,0.00014493,0.00002007,-0.00004167,-0.00028162
 ,-0.00006398,-0.00049009,-0.00690181,-0.00139300,0.00089821,0.00225841
 ,0.00747284,-0.00765613,0.02161073\\0.00001874,0.00000609,-0.00000048,
 0.00000700,-0.00000553,0.00000029,-0.00001732,0.00000728,-0.00000033,0
 .00001579,-0.00000665,0.00000030,-0.00002018,0.00000754,-0.00000032,0.
 00001495,-0.00000362,0.00000013,-0.00001196,0.00000560,-0.00000026,0.0
 0000529,-0.00000317,0.00000015,0.00000204,0.00000589,-0.00000038,-0.00
 000764,-0.00000384,0.00000026,0.00001484,0.00000618,-0.00000049,-0.000
 01845,-0.00000478,0.00000038,0.00002271,0.00000615,-0.00000054,-0.0000
 2387,-0.00000562,0.00000046,0.00002389,0.00000570,-0.00000052,-0.00002
 251,-0.00000613,0.00000049,0.00001827,0.00000490,-0.00000042,-0.000014
 56,-0.00000622,0.00000047,0.00000731,0.00000395,-0.00000027,-0.0000017
 6,-0.00000596,0.00000040,-0.00000567,0.00000323,-0.00000013,0.00001218
 ,-0.00000566,0.00000030,-0.00001529,0.00000362,-0.00000009,0.00002033,
 -0.00000755,0.00000036,-0.00001597,0.00000660,-0.00000027,0.00001749,-
 0.00000727,0.00000033,-0.00000705,0.00000551,-0.00000025,-0.00001869,-
 0.00000607,0.00000051,-0.00000259,-0.00000317,0.00000021,-0.00000567,-
 0.00000149,0.00000012,-0.00000355,0.00000126,-0.00000006,0.00000452,-0
 .00000351,0.00000018,-0.00000493,0.00000374,-0.00000020,0.00000443,-0.
 00000382,0.00000020,-0.00000530,0.00000248,-0.00000012,0.00000405,-0.0
 0000310,0.00000016,-0.00000382,0.00000221,-0.00000011,0.00000265,-0.00
 000294,0.00000017,-0.00000216,0.00000225,-0.00000010,0.00000128,-0.000
 00285,0.00000019,-0.00000088,0.00000237,-0.00000011,0.00000042,-0.0000
 0273,0.00000020,-0.00000027,0.00000250,-0.00000011,0.00000027,-0.00000
 257,0.00000018,-0.00000042,0.00000264,-0.00000013,0.00000089,-0.000002
 40,0.00000015,-0.00000128,0.00000277,-0.00000016,0.00000217,-0.0000022
 5,0.00000010,-0.00000265,0.00000290,-0.00000018,0.00000384,-0.00000218
 ,0.00000007,-0.00000405,0.00000311,-0.00000020,0.00000533,-0.00000246,
 0.00000007,-0.00000444,0.00000387,-0.00000024,0.00000495,-0.00000374,0
 .00000017,-0.00000452,0.00000355,-0.00000021,0.00000356,-0.00000126,0.
 00000003,0.00000565,0.00000150,-0.00000014,0.00000260,0.00000318,-0.00
 000021\\\@


 THE SECRET OF SUCCESS IN LIFE IS TO EAT WHAT YOU LIKE, AND LET THE FOOD
 FIGHT IT OUT INSIDE YOU. -- FROM A FORTUNE COOKIE
 Job cpu time:       0 days  3 hours 20 minutes 25.0 seconds.
 Elapsed time:       0 days  0 hours 50 minutes  6.7 seconds.
 File lengths (MBytes):  RWF=   1786 Int=      0 D2E=      0 Chk=     32 Scr=      1
 Normal termination of Gaussian 16 at Thu Nov  9 20:27:19 2023.
