 Entering Gaussian System, Link 0=g16
 Input=./com/14.com
 Output=./log/14.log
 Initial command:
 /home/shohei/gaussian/g16/l1.exe "/home/shohei/gaussian/scratch/Gau-26524.inp" -scrdir="/home/shohei/gaussian/scratch/"
 Entering Link 1 = /home/shohei/gaussian/g16/l1.exe PID=     26526.
  
 Copyright (c) 1988-2017, Gaussian, Inc.  All Rights Reserved.
  
 This is part of the Gaussian(R) 16 program.  It is based on
 the Gaussian(R) 09 system (copyright 2009, Gaussian, Inc.),
 the Gaussian(R) 03 system (copyright 2003, Gaussian, Inc.),
 the Gaussian(R) 98 system (copyright 1998, Gaussian, Inc.),
 the Gaussian(R) 94 system (copyright 1995, Gaussian, Inc.),
 the Gaussian 92(TM) system (copyright 1992, Gaussian, Inc.),
 the Gaussian 90(TM) system (copyright 1990, Gaussian, Inc.),
 the Gaussian 88(TM) system (copyright 1988, Gaussian, Inc.),
 the Gaussian 86(TM) system (copyright 1986, Carnegie Mellon
 University), and the Gaussian 82(TM) system (copyright 1983,
 Carnegie Mellon University). Gaussian is a federally registered
 trademark of Gaussian, Inc.
  
 This software contains proprietary and confidential information,
 including trade secrets, belonging to Gaussian, Inc.
  
 This software is provided under written license and may be
 used, copied, transmitted, or stored only in accord with that
 written license.
  
 The following legend is applicable only to US Government
 contracts under FAR:
  
                    RESTRICTED RIGHTS LEGEND
  
 Use, reproduction and disclosure by the US Government is
 subject to restrictions as set forth in subparagraphs (a)
 and (c) of the Commercial Computer Software - Restricted
 Rights clause in FAR 52.227-19.
  
 Gaussian, Inc.
 340 Quinnipiac St., Bldg. 40, Wallingford CT 06492
  
  
 ---------------------------------------------------------------
 Warning -- This program may not be used in any manner that
 competes with the business of Gaussian, Inc. or will provide
 assistance to any competitor of Gaussian, Inc.  The licensee
 of this program is prohibited from giving any competitor of
 Gaussian, Inc. access to this program.  By using this program,
 the user acknowledges that Gaussian, Inc. is engaged in the
 business of creating and licensing software in the field of
 computational chemistry and represents and warrants to the
 licensee that it is not a competitor of Gaussian, Inc. and that
 it will not use this program in any manner prohibited above.
 ---------------------------------------------------------------
  

 Cite this work as:
 Gaussian 16, Revision B.01,
 M. J. Frisch, G. W. Trucks, H. B. Schlegel, G. E. Scuseria, 
 M. A. Robb, J. R. Cheeseman, G. Scalmani, V. Barone, 
 G. A. Petersson, H. Nakatsuji, X. Li, M. Caricato, A. V. Marenich, 
 J. Bloino, B. G. Janesko, R. Gomperts, B. Mennucci, H. P. Hratchian, 
 J. V. Ortiz, A. F. Izmaylov, J. L. Sonnenberg, D. Williams-Young, 
 F. Ding, F. Lipparini, F. Egidi, J. Goings, B. Peng, A. Petrone, 
 T. Henderson, D. Ranasinghe, V. G. Zakrzewski, J. Gao, N. Rega, 
 G. Zheng, W. Liang, M. Hada, M. Ehara, K. Toyota, R. Fukuda, 
 J. Hasegawa, M. Ishida, T. Nakajima, Y. Honda, O. Kitao, H. Nakai, 
 T. Vreven, K. Throssell, J. A. Montgomery, Jr., J. E. Peralta, 
 F. Ogliaro, M. J. Bearpark, J. J. Heyd, E. N. Brothers, K. N. Kudin, 
 V. N. Staroverov, T. A. Keith, R. Kobayashi, J. Normand, 
 K. Raghavachari, A. P. Rendell, J. C. Burant, S. S. Iyengar, 
 J. Tomasi, M. Cossi, J. M. Millam, M. Klene, C. Adamo, R. Cammi, 
 J. W. Ochterski, R. L. Martin, K. Morokuma, O. Farkas, 
 J. B. Foresman, and D. J. Fox, Gaussian, Inc., Wallingford CT, 2016.
 
 ******************************************
 Gaussian 16:  EM64L-G16RevB.01 20-Dec-2017
                28-Oct-2023 
 ******************************************
 %chk=./chk/14.chk
 ---------------------------
 # B3LYP/6-31G(d,p) OPT FREQ
 ---------------------------
 1/18=20,19=15,26=3,38=1/1,3;
 2/9=110,12=2,17=6,18=5,40=1/2;
 3/5=1,6=6,7=101,11=2,25=1,30=1,71=1,74=-5/1,2,3;
 4//1;
 5/5=2,38=5/2;
 6/7=2,8=2,9=2,10=2,28=1/1;
 7//1,2,3,16;
 1/18=20,19=15,26=3/3(2);
 2/9=110/2;
 99//99;
 2/9=110/2;
 3/5=1,6=6,7=101,11=2,25=1,30=1,71=1,74=-5/1,2,3;
 4/5=5,16=3,69=1/1;
 5/5=2,38=5/2;
 7//1,2,3,16;
 1/18=20,19=15,26=3/3(-5);
 2/9=110/2;
 6/7=2,8=2,9=2,10=2,19=2,28=1/1;
 99/9=1/99;
 ------
 14poly
 ------
 Symbolic Z-matrix:
 Charge =  0 Multiplicity = 1
 C                    -2.10384   0.7948    0.67624 
 C                    -1.16515   1.03036  -0.24317 
 C                     0.1663    0.39579  -0.15629 
 C                     1.1032    0.63548  -1.08326 
 C                     2.43776   0.00304  -1.00284 
 C                     3.36593   0.25174  -1.94336 
 C                     4.73781  -0.32237  -1.9731 
 C                     5.24137  -1.17201  -1.05231 
 C                     6.61577  -1.7471   -1.08384 
 C                     7.53384  -1.49763  -2.0415 
 C                     8.90816  -2.06687  -2.08282 
 C                     9.43217  -2.90792  -1.16536 
 C                     10.81132  -3.47107  -1.21745 
 C                     11.71029  -3.21874  -2.19222 
 C                     13.0874  -3.77608  -2.24915 
 C                     13.63538  -4.60207  -1.34026 
 C                     15.02292  -5.08264  -1.51694 
 C                     15.59935  -5.9003   -0.62562 
 C                     16.98883  -6.36446  -0.82262 
 C                     17.58471  -7.17609   0.06096 
 C                     18.97625  -7.62697  -0.15167 
 C                     19.58758  -8.43309   0.7263 
 C                     20.98057  -8.87387   0.50243 
 C                     21.6026  -9.67562   1.37684 
 C                     22.99644  -10.10996   1.14613 
 C                     23.62446  -10.90891   2.01874 
 C                     25.01818  -11.33975   1.7845 
 C                     25.65007  -12.13479   2.65095 
 H                    -1.9156    0.1301    1.51416 
 H                    -1.3927    1.70185  -1.06689 
 H                     0.38348  -0.27412   0.67256 
 H                     0.88165   1.30577  -1.91088 
 H                     2.64129  -0.66067  -0.1714 
 H                     3.11287   0.9245   -2.75875 
 H                     5.33978  -0.00641  -2.81369 
 H                     4.63434  -1.48342  -0.2125 
 H                     6.85377  -2.40836  -0.26134 
 H                     7.29679  -0.83829  -2.86499 
 H                     9.49678  -1.75238  -2.93329 
 H                     8.84234  -3.22004  -0.31388 
 H                     11.07252  -4.12564  -0.39606 
 H                     11.4559  -2.56735  -3.01659 
 H                     13.68531  -3.47605  -3.10587 
 H                     13.08256  -4.92943  -0.46799 
 H                     15.58567  -4.76124  -2.39065 
 H                     15.0449  -6.22546   0.25156 
 H                     17.53557  -6.03598  -1.70379 
 H                     17.04381  -7.50666   0.94461 
 H                     19.51081  -7.29388  -1.03853 
 H                     19.0574  -8.76751   1.61501 
 H                     21.50636  -8.53788  -0.38855 
 H                     21.07963  -10.01233   2.269 
 H                     23.51711  -9.77256   0.25267 
 H                     23.10595  -11.24704   2.91302 
 H                     25.54556  -11.00808   0.89401 
 H                     25.15772  -12.48741   3.55241 
 H                     26.67402  -12.4393   2.45972 
 H                    -3.07535   1.27131   0.5932 
 

 GradGradGradGradGradGradGradGradGradGradGradGradGradGradGradGradGradGrad
 Berny optimization.
 Initialization pass.
                           ----------------------------
                           !    Initial Parameters    !
                           ! (Angstroms and Degrees)  !
 --------------------------                            --------------------------
 ! Name  Definition              Value          Derivative Info.                !
 --------------------------------------------------------------------------------
 ! R1    R(1,2)                  1.3349         estimate D2E/DX2                !
 ! R2    R(1,29)                 1.086          estimate D2E/DX2                !
 ! R3    R(1,58)                 1.0853         estimate D2E/DX2                !
 ! R4    R(2,3)                  1.4775         estimate D2E/DX2                !
 ! R5    R(2,30)                 1.0868         estimate D2E/DX2                !
 ! R6    R(3,4)                  1.3396         estimate D2E/DX2                !
 ! R7    R(3,31)                 1.0876         estimate D2E/DX2                !
 ! R8    R(4,5)                  1.479          estimate D2E/DX2                !
 ! R9    R(4,32)                 1.0878         estimate D2E/DX2                !
 ! R10   R(5,6)                  1.3446         estimate D2E/DX2                !
 ! R11   R(5,33)                 1.0832         estimate D2E/DX2                !
 ! R12   R(6,7)                  1.4875         estimate D2E/DX2                !
 ! R13   R(6,34)                 1.087          estimate D2E/DX2                !
 ! R14   R(7,8)                  1.3503         estimate D2E/DX2                !
 ! R15   R(7,35)                 1.0811         estimate D2E/DX2                !
 ! R16   R(8,9)                  1.4902         estimate D2E/DX2                !
 ! R17   R(8,36)                 1.082          estimate D2E/DX2                !
 ! R18   R(9,10)                 1.3499         estimate D2E/DX2                !
 ! R19   R(9,37)                 1.0819         estimate D2E/DX2                !
 ! R20   R(10,11)                1.4881         estimate D2E/DX2                !
 ! R21   R(10,38)                1.0812         estimate D2E/DX2                !
 ! R22   R(11,12)                1.3504         estimate D2E/DX2                !
 ! R23   R(11,39)                1.0811         estimate D2E/DX2                !
 ! R24   R(12,13)                1.4906         estimate D2E/DX2                !
 ! R25   R(12,40)                1.0818         estimate D2E/DX2                !
 ! R26   R(13,14)                1.3498         estimate D2E/DX2                !
 ! R27   R(13,41)                1.0823         estimate D2E/DX2                !
 ! R28   R(14,15)                1.4867         estimate D2E/DX2                !
 ! R29   R(14,42)                1.081          estimate D2E/DX2                !
 ! R30   R(15,16)                1.3448         estimate D2E/DX2                !
 ! R31   R(15,43)                1.087          estimate D2E/DX2                !
 ! R32   R(16,17)                1.479          estimate D2E/DX2                !
 ! R33   R(16,44)                1.0833         estimate D2E/DX2                !
 ! R34   R(17,18)                1.3399         estimate D2E/DX2                !
 ! R35   R(17,45)                1.0878         estimate D2E/DX2                !
 ! R36   R(18,19)                1.4782         estimate D2E/DX2                !
 ! R37   R(18,46)                1.0875         estimate D2E/DX2                !
 ! R38   R(19,20)                1.3396         estimate D2E/DX2                !
 ! R39   R(19,47)                1.0878         estimate D2E/DX2                !
 ! R40   R(20,21)                1.4781         estimate D2E/DX2                !
 ! R41   R(20,48)                1.0875         estimate D2E/DX2                !
 ! R42   R(21,22)                1.3395         estimate D2E/DX2                !
 ! R43   R(21,49)                1.0878         estimate D2E/DX2                !
 ! R44   R(22,23)                1.4781         estimate D2E/DX2                !
 ! R45   R(22,50)                1.0875         estimate D2E/DX2                !
 ! R46   R(23,24)                1.3395         estimate D2E/DX2                !
 ! R47   R(23,51)                1.0877         estimate D2E/DX2                !
 ! R48   R(24,25)                1.4781         estimate D2E/DX2                !
 ! R49   R(24,52)                1.0876         estimate D2E/DX2                !
 ! R50   R(25,26)                1.3395         estimate D2E/DX2                !
 ! R51   R(25,53)                1.0877         estimate D2E/DX2                !
 ! R52   R(26,27)                1.4775         estimate D2E/DX2                !
 ! R53   R(26,54)                1.0876         estimate D2E/DX2                !
 ! R54   R(27,28)                1.335          estimate D2E/DX2                !
 ! R55   R(27,55)                1.0868         estimate D2E/DX2                !
 ! R56   R(28,56)                1.086          estimate D2E/DX2                !
 ! R57   R(28,57)                1.0853         estimate D2E/DX2                !
 ! A1    A(2,1,29)             121.1674         estimate D2E/DX2                !
 ! A2    A(2,1,58)             119.9539         estimate D2E/DX2                !
 ! A3    A(29,1,58)            118.8788         estimate D2E/DX2                !
 ! A4    A(1,2,3)              121.1575         estimate D2E/DX2                !
 ! A5    A(1,2,30)             118.9346         estimate D2E/DX2                !
 ! A6    A(3,2,30)             119.9079         estimate D2E/DX2                !
 ! A7    A(2,3,4)              120.8452         estimate D2E/DX2                !
 ! A8    A(2,3,31)             119.2941         estimate D2E/DX2                !
 ! A9    A(4,3,31)             119.8607         estimate D2E/DX2                !
 ! A10   A(3,4,5)              121.1274         estimate D2E/DX2                !
 ! A11   A(3,4,32)             119.6219         estimate D2E/DX2                !
 ! A12   A(5,4,32)             119.2508         estimate D2E/DX2                !
 ! A13   A(4,5,6)              120.3811         estimate D2E/DX2                !
 ! A14   A(4,5,33)             118.2493         estimate D2E/DX2                !
 ! A15   A(6,5,33)             121.3696         estimate D2E/DX2                !
 ! A16   A(5,6,7)              125.3983         estimate D2E/DX2                !
 ! A17   A(5,6,34)             118.5866         estimate D2E/DX2                !
 ! A18   A(7,6,34)             116.0151         estimate D2E/DX2                !
 ! A19   A(6,7,8)              124.9715         estimate D2E/DX2                !
 ! A20   A(6,7,35)             114.6006         estimate D2E/DX2                !
 ! A21   A(8,7,35)             120.4279         estimate D2E/DX2                !
 ! A22   A(7,8,9)              124.9137         estimate D2E/DX2                !
 ! A23   A(7,8,36)             120.0764         estimate D2E/DX2                !
 ! A24   A(9,8,36)             115.0099         estimate D2E/DX2                !
 ! A25   A(8,9,10)             124.8163         estimate D2E/DX2                !
 ! A26   A(8,9,37)             115.0045         estimate D2E/DX2                !
 ! A27   A(10,9,37)            120.1792         estimate D2E/DX2                !
 ! A28   A(9,10,11)            125.2469         estimate D2E/DX2                !
 ! A29   A(9,10,38)            120.2594         estimate D2E/DX2                !
 ! A30   A(11,10,38)           114.4936         estimate D2E/DX2                !
 ! A31   A(10,11,12)           125.2913         estimate D2E/DX2                !
 ! A32   A(10,11,39)           114.4195         estimate D2E/DX2                !
 ! A33   A(12,11,39)           120.2891         estimate D2E/DX2                !
 ! A34   A(11,12,13)           124.7903         estimate D2E/DX2                !
 ! A35   A(11,12,40)           120.1881         estimate D2E/DX2                !
 ! A36   A(13,12,40)           115.0216         estimate D2E/DX2                !
 ! A37   A(12,13,14)           124.8065         estimate D2E/DX2                !
 ! A38   A(12,13,41)           115.1671         estimate D2E/DX2                !
 ! A39   A(14,13,41)           120.0265         estimate D2E/DX2                !
 ! A40   A(13,14,15)           125.0627         estimate D2E/DX2                !
 ! A41   A(13,14,42)           120.4391         estimate D2E/DX2                !
 ! A42   A(15,14,42)           114.4982         estimate D2E/DX2                !
 ! A43   A(14,15,16)           125.5768         estimate D2E/DX2                !
 ! A44   A(14,15,43)           115.8635         estimate D2E/DX2                !
 ! A45   A(16,15,43)           118.5596         estimate D2E/DX2                !
 ! A46   A(15,16,17)           120.073          estimate D2E/DX2                !
 ! A47   A(15,16,44)           121.4547         estimate D2E/DX2                !
 ! A48   A(17,16,44)           118.4721         estimate D2E/DX2                !
 ! A49   A(16,17,18)           121.4953         estimate D2E/DX2                !
 ! A50   A(16,17,45)           119.0302         estimate D2E/DX2                !
 ! A51   A(18,17,45)           119.4744         estimate D2E/DX2                !
 ! A52   A(17,18,19)           120.489          estimate D2E/DX2                !
 ! A53   A(17,18,46)           119.981          estimate D2E/DX2                !
 ! A54   A(19,18,46)           119.5299         estimate D2E/DX2                !
 ! A55   A(18,19,20)           121.3645         estimate D2E/DX2                !
 ! A56   A(18,19,47)           119.0519         estimate D2E/DX2                !
 ! A57   A(20,19,47)           119.5835         estimate D2E/DX2                !
 ! A58   A(19,20,21)           120.5761         estimate D2E/DX2                !
 ! A59   A(19,20,48)           119.9254         estimate D2E/DX2                !
 ! A60   A(21,20,48)           119.4984         estimate D2E/DX2                !
 ! A61   A(20,21,22)           121.2595         estimate D2E/DX2                !
 ! A62   A(20,21,49)           119.1123         estimate D2E/DX2                !
 ! A63   A(22,21,49)           119.6282         estimate D2E/DX2                !
 ! A64   A(21,22,23)           120.6823         estimate D2E/DX2                !
 ! A65   A(21,22,50)           119.8788         estimate D2E/DX2                !
 ! A66   A(23,22,50)           119.4388         estimate D2E/DX2                !
 ! A67   A(22,23,24)           121.1473         estimate D2E/DX2                !
 ! A68   A(22,23,51)           119.1757         estimate D2E/DX2                !
 ! A69   A(24,23,51)           119.677          estimate D2E/DX2                !
 ! A70   A(23,24,25)           120.7901         estimate D2E/DX2                !
 ! A71   A(23,24,52)           119.8345         estimate D2E/DX2                !
 ! A72   A(25,24,52)           119.3753         estimate D2E/DX2                !
 ! A73   A(24,25,26)           121.0462         estimate D2E/DX2                !
 ! A74   A(24,25,53)           119.2388         estimate D2E/DX2                !
 ! A75   A(26,25,53)           119.715          estimate D2E/DX2                !
 ! A76   A(25,26,27)           120.8592         estimate D2E/DX2                !
 ! A77   A(25,26,54)           119.8386         estimate D2E/DX2                !
 ! A78   A(27,26,54)           119.3022         estimate D2E/DX2                !
 ! A79   A(26,27,28)           121.1498         estimate D2E/DX2                !
 ! A80   A(26,27,55)           119.9118         estimate D2E/DX2                !
 ! A81   A(28,27,55)           118.9384         estimate D2E/DX2                !
 ! A82   A(27,28,56)           121.1676         estimate D2E/DX2                !
 ! A83   A(27,28,57)           119.9571         estimate D2E/DX2                !
 ! A84   A(56,28,57)           118.8753         estimate D2E/DX2                !
 ! D1    D(29,1,2,3)            -0.0001         estimate D2E/DX2                !
 ! D2    D(29,1,2,30)          179.9872         estimate D2E/DX2                !
 ! D3    D(58,1,2,3)          -179.9909         estimate D2E/DX2                !
 ! D4    D(58,1,2,30)           -0.0035         estimate D2E/DX2                !
 ! D5    D(1,2,3,4)            179.9266         estimate D2E/DX2                !
 ! D6    D(1,2,3,31)            -0.0445         estimate D2E/DX2                !
 ! D7    D(30,2,3,4)            -0.0606         estimate D2E/DX2                !
 ! D8    D(30,2,3,31)          179.9683         estimate D2E/DX2                !
 ! D9    D(2,3,4,5)           -179.9647         estimate D2E/DX2                !
 ! D10   D(2,3,4,32)            -0.0014         estimate D2E/DX2                !
 ! D11   D(31,3,4,5)             0.0063         estimate D2E/DX2                !
 ! D12   D(31,3,4,32)          179.9695         estimate D2E/DX2                !
 ! D13   D(3,4,5,6)            179.8399         estimate D2E/DX2                !
 ! D14   D(3,4,5,33)            -0.1036         estimate D2E/DX2                !
 ! D15   D(32,4,5,6)            -0.1235         estimate D2E/DX2                !
 ! D16   D(32,4,5,33)          179.9331         estimate D2E/DX2                !
 ! D17   D(4,5,6,7)           -179.9391         estimate D2E/DX2                !
 ! D18   D(4,5,6,34)            -0.0026         estimate D2E/DX2                !
 ! D19   D(33,5,6,7)             0.0026         estimate D2E/DX2                !
 ! D20   D(33,5,6,34)          179.9391         estimate D2E/DX2                !
 ! D21   D(5,6,7,8)             -0.2425         estimate D2E/DX2                !
 ! D22   D(5,6,7,35)           179.7759         estimate D2E/DX2                !
 ! D23   D(34,6,7,8)           179.8196         estimate D2E/DX2                !
 ! D24   D(34,6,7,35)           -0.162          estimate D2E/DX2                !
 ! D25   D(6,7,8,9)            179.9594         estimate D2E/DX2                !
 ! D26   D(6,7,8,36)            -0.0671         estimate D2E/DX2                !
 ! D27   D(35,7,8,9)            -0.06           estimate D2E/DX2                !
 ! D28   D(35,7,8,36)          179.9135         estimate D2E/DX2                !
 ! D29   D(7,8,9,10)            -0.3303         estimate D2E/DX2                !
 ! D30   D(7,8,9,37)           179.7403         estimate D2E/DX2                !
 ! D31   D(36,8,9,10)          179.695          estimate D2E/DX2                !
 ! D32   D(36,8,9,37)           -0.2344         estimate D2E/DX2                !
 ! D33   D(8,9,10,11)         -179.9702         estimate D2E/DX2                !
 ! D34   D(8,9,10,38)           -0.0303         estimate D2E/DX2                !
 ! D35   D(37,9,10,11)          -0.0442         estimate D2E/DX2                !
 ! D36   D(37,9,10,38)         179.8957         estimate D2E/DX2                !
 ! D37   D(9,10,11,12)          -0.3186         estimate D2E/DX2                !
 ! D38   D(9,10,11,39)         179.7473         estimate D2E/DX2                !
 ! D39   D(38,10,11,12)        179.7384         estimate D2E/DX2                !
 ! D40   D(38,10,11,39)         -0.1957         estimate D2E/DX2                !
 ! D41   D(10,11,12,13)       -179.964          estimate D2E/DX2                !
 ! D42   D(10,11,12,40)         -0.0508         estimate D2E/DX2                !
 ! D43   D(39,11,12,13)         -0.0334         estimate D2E/DX2                !
 ! D44   D(39,11,12,40)        179.8797         estimate D2E/DX2                !
 ! D45   D(11,12,13,14)         -0.4061         estimate D2E/DX2                !
 ! D46   D(11,12,13,41)        179.6226         estimate D2E/DX2                !
 ! D47   D(40,12,13,14)        179.6768         estimate D2E/DX2                !
 ! D48   D(40,12,13,41)         -0.2945         estimate D2E/DX2                !
 ! D49   D(12,13,14,15)        179.9355         estimate D2E/DX2                !
 ! D50   D(12,13,14,42)         -0.0758         estimate D2E/DX2                !
 ! D51   D(41,13,14,15)         -0.0945         estimate D2E/DX2                !
 ! D52   D(41,13,14,42)        179.8942         estimate D2E/DX2                !
 ! D53   D(13,14,15,16)         -0.3277         estimate D2E/DX2                !
 ! D54   D(13,14,15,43)        179.7808         estimate D2E/DX2                !
 ! D55   D(42,14,15,16)        179.683          estimate D2E/DX2                !
 ! D56   D(42,14,15,43)         -0.2085         estimate D2E/DX2                !
 ! D57   D(14,15,16,17)       -179.8728         estimate D2E/DX2                !
 ! D58   D(14,15,16,44)          0.0066         estimate D2E/DX2                !
 ! D59   D(43,15,16,17)          0.016          estimate D2E/DX2                !
 ! D60   D(43,15,16,44)        179.8954         estimate D2E/DX2                !
 ! D61   D(15,16,17,18)        179.6386         estimate D2E/DX2                !
 ! D62   D(15,16,17,45)         -0.2415         estimate D2E/DX2                !
 ! D63   D(44,16,17,18)         -0.2444         estimate D2E/DX2                !
 ! D64   D(44,16,17,45)        179.8755         estimate D2E/DX2                !
 ! D65   D(16,17,18,19)       -179.8499         estimate D2E/DX2                !
 ! D66   D(16,17,18,46)          0.0233         estimate D2E/DX2                !
 ! D67   D(45,17,18,19)          0.0296         estimate D2E/DX2                !
 ! D68   D(45,17,18,46)        179.9029         estimate D2E/DX2                !
 ! D69   D(17,18,19,20)        179.6301         estimate D2E/DX2                !
 ! D70   D(17,18,19,47)         -0.2456         estimate D2E/DX2                !
 ! D71   D(46,18,19,20)         -0.2437         estimate D2E/DX2                !
 ! D72   D(46,18,19,47)        179.8806         estimate D2E/DX2                !
 ! D73   D(18,19,20,21)       -179.8469         estimate D2E/DX2                !
 ! D74   D(18,19,20,48)          0.0304         estimate D2E/DX2                !
 ! D75   D(47,19,20,21)          0.0282         estimate D2E/DX2                !
 ! D76   D(47,19,20,48)        179.9055         estimate D2E/DX2                !
 ! D77   D(19,20,21,22)        179.6633         estimate D2E/DX2                !
 ! D78   D(19,20,21,49)         -0.2261         estimate D2E/DX2                !
 ! D79   D(48,20,21,22)         -0.2145         estimate D2E/DX2                !
 ! D80   D(48,20,21,49)        179.8961         estimate D2E/DX2                !
 ! D81   D(20,21,22,23)       -179.8681         estimate D2E/DX2                !
 ! D82   D(20,21,22,50)          0.0306         estimate D2E/DX2                !
 ! D83   D(49,21,22,23)          0.0208         estimate D2E/DX2                !
 ! D84   D(49,21,22,50)        179.9195         estimate D2E/DX2                !
 ! D85   D(21,22,23,24)        179.7365         estimate D2E/DX2                !
 ! D86   D(21,22,23,51)         -0.1815         estimate D2E/DX2                !
 ! D87   D(50,22,23,24)         -0.1626         estimate D2E/DX2                !
 ! D88   D(50,22,23,51)        179.9194         estimate D2E/DX2                !
 ! D89   D(22,23,24,25)       -179.9077         estimate D2E/DX2                !
 ! D90   D(22,23,24,52)          0.0243         estimate D2E/DX2                !
 ! D91   D(51,23,24,25)          0.01           estimate D2E/DX2                !
 ! D92   D(51,23,24,52)        179.942          estimate D2E/DX2                !
 ! D93   D(23,24,25,26)        179.8341         estimate D2E/DX2                !
 ! D94   D(23,24,25,53)         -0.1198         estimate D2E/DX2                !
 ! D95   D(52,24,25,26)         -0.0982         estimate D2E/DX2                !
 ! D96   D(52,24,25,53)        179.9479         estimate D2E/DX2                !
 ! D97   D(24,25,26,27)       -179.9539         estimate D2E/DX2                !
 ! D98   D(24,25,26,54)          0.0137         estimate D2E/DX2                !
 ! D99   D(53,25,26,27)         -0.0002         estimate D2E/DX2                !
 ! D100  D(53,25,26,54)        179.9674         estimate D2E/DX2                !
 ! D101  D(25,26,27,28)        179.9311         estimate D2E/DX2                !
 ! D102  D(25,26,27,55)         -0.0542         estimate D2E/DX2                !
 ! D103  D(54,26,27,28)         -0.0367         estimate D2E/DX2                !
 ! D104  D(54,26,27,55)        179.978          estimate D2E/DX2                !
 ! D105  D(26,27,28,56)          0.0017         estimate D2E/DX2                !
 ! D106  D(26,27,28,57)       -179.9894         estimate D2E/DX2                !
 ! D107  D(55,27,28,56)        179.9871         estimate D2E/DX2                !
 ! D108  D(55,27,28,57)         -0.004          estimate D2E/DX2                !
 --------------------------------------------------------------------------------
 Trust Radius=3.00D-01 FncErr=1.00D-07 GrdErr=1.00D-06 EigMax=2.50D+02 EigMin=1.00D-04
 Number of steps in this run=    259 maximum allowed number of steps=    348.
 GradGradGradGradGradGradGradGradGradGradGradGradGradGradGradGradGradGrad

 Stoichiometry    C28H30
 Framework group  C1[X(C28H30)]
 Deg. of freedom   168
 Full point group                 C1      NOp   1
 Largest Abelian subgroup         C1      NOp   1
 Largest concise Abelian subgroup C1      NOp   1
                         Standard orientation:                         
 ---------------------------------------------------------------------
 Center     Atomic      Atomic             Coordinates (Angstroms)
 Number     Number       Type             X           Y           Z
 ---------------------------------------------------------------------
      1          6           0       14.925718    2.895102   -0.042331
      2          6           0       14.271901    1.732030   -0.000514
      3          6           0       12.795208    1.684379   -0.011193
      4          6           0       12.145482    0.513607    0.029499
      5          6           0       10.667529    0.458601    0.018319
      6          6           0       10.030780   -0.725043    0.056396
      7          6           0        8.554895   -0.910105    0.048753
      8          6           0        7.649578    0.090874    0.006976
      9          6           0        6.171170   -0.096050   -0.001495
     10          6           0        5.545342   -1.291798    0.025156
     11          6           0        4.070445   -1.489564    0.016378
     12          6           0        3.150882   -0.501033   -0.013338
     13          6           0        1.675305   -0.712022   -0.021063
     14          6           0        1.069362   -1.918095   -0.007204
     15          6           0       -0.401418   -2.135090   -0.013432
     16          6           0       -1.335055   -1.167236   -0.027391
     17          6           0       -2.770770   -1.522410   -0.029332
     18          6           0       -3.724629   -0.581463   -0.035879
     19          6           0       -5.153074   -0.961561   -0.034356
     20          6           0       -6.120999   -0.035466   -0.033433
     21          6           0       -7.544059   -0.435176   -0.028513
     22          6           0       -8.522896    0.479267   -0.020807
     23          6           0       -9.941820    0.065239   -0.013030
     24          6           0      -10.927994    0.971668   -0.000023
     25          6           0      -12.344247    0.548804    0.009724
     26          6           0      -13.334398    1.450761    0.026065
     27          6           0      -14.748684    1.023440    0.036779
     28          6           0      -15.740025    1.917323    0.054446
     29          1           0       14.390890    3.839283   -0.085389
     30          1           0       14.843581    0.808687    0.041796
     31          1           0       12.233040    2.614503   -0.053171
     32          1           0       12.711625   -0.414340    0.070923
     33          1           0       10.120048    1.392334   -0.022048
     34          1           0       10.625090   -1.634327    0.095291
     35          1           0        8.230394   -1.940884    0.080337
     36          1           0        7.980657    1.120544   -0.023097
     37          1           0        5.594728    0.818912   -0.032756
     38          1           0        6.120182   -2.207077    0.054708
     39          1           0        3.758135   -2.524318    0.037301
     40          1           0        3.465221    0.533945   -0.032286
     41          1           0        1.081137    0.192403   -0.039717
     42          1           0        1.656318   -2.825728    0.009722
     43          1           0       -0.727799   -3.171855   -0.004014
     44          1           0       -1.062379   -0.118807   -0.035467
     45          1           0       -3.054808   -2.572477   -0.023349
     46          1           0       -3.449977    0.470744   -0.040287
     47          1           0       -5.419016   -2.016333   -0.031918
     48          1           0       -5.861420    1.020607   -0.034301
     49          1           0       -7.796582   -1.493222   -0.029392
     50          1           0       -8.275049    1.538184   -0.018573
     51          1           0      -10.184856   -0.995001   -0.016636
     52          1           0      -10.687905    2.032399    0.004566
     53          1           0      -12.581854   -0.512660    0.004245
     54          1           0      -13.099104    2.512610    0.032107
     55          1           0      -14.995077   -0.035035    0.030512
     56          1           0      -15.535138    2.983792    0.061416
     57          1           0      -16.772111    1.581883    0.062238
     58          1           0       16.010873    2.907324   -0.033705
 ---------------------------------------------------------------------
 Rotational constants (GHZ):           0.8148183           0.0158219           0.0155208
 Standard basis: 6-31G(d,p) (6D, 7F)
 There are   570 symmetry adapted cartesian basis functions of A   symmetry.
 There are   570 symmetry adapted basis functions of A   symmetry.
   570 basis functions,   994 primitive gaussians,   570 cartesian basis functions
    99 alpha electrons       99 beta electrons
       nuclear repulsion energy      1738.6196600486 Hartrees.
 NAtoms=   58 NActive=   58 NUniq=   58 SFac= 1.00D+00 NAtFMM=   60 NAOKFM=F Big=F
 Integral buffers will be    131072 words long.
 Raffenetti 2 integral format.
 Two-electron integral symmetry is turned on.
 One-electron integrals computed using PRISM.
 NBasis=   570 RedAO= T EigKep=  7.32D-04  NBF=   570
 NBsUse=   570 1.00D-06 EigRej= -1.00D+00 NBFU=   570
 ExpMin= 1.61D-01 ExpMax= 3.05D+03 ExpMxC= 4.57D+02 IAcc=3 IRadAn=         5 AccDes= 0.00D+00
 Harris functional with IExCor=  402 and IRadAn=       5 diagonalized for initial guess.
 HarFok:  IExCor=  402 AccDes= 0.00D+00 IRadAn=         5 IDoV= 1 UseB2=F ITyADJ=14
 ICtDFT=  3500011 ScaDFX=  1.000000  1.000000  1.000000  1.000000
 FoFCou: FMM=F IPFlag=           0 FMFlag=      100000 FMFlg1=           0
         NFxFlg=           0 DoJE=T BraDBF=F KetDBF=T FulRan=T
         wScrn=  0.000000 ICntrl=       500 IOpCl=  0 I1Cent=   200000004 NGrid=           0
         NMat0=    1 NMatS0=      1 NMatT0=    0 NMatD0=    1 NMtDS0=    0 NMtDT0=    0
 Petite list used in FoFCou.
 Requested convergence on RMS density matrix=1.00D-08 within 128 cycles.
 Requested convergence on MAX density matrix=1.00D-06.
 Requested convergence on             energy=1.00D-06.
 No special actions if energy rises.
 Integral accuracy reduced to 1.0D-05 until final iterations.
 Initial convergence to 1.0D-05 achieved.  Increase integral accuracy.
 SCF Done:  E(RB3LYP) =  -1084.87385449     A.U. after   13 cycles
            NFock= 13  Conv=0.78D-08     -V/T= 2.0102

 **********************************************************************

            Population analysis using the SCF Density.

 **********************************************************************

 Orbital symmetries:
       Occupied  (A) (A) (A) (A) (A) (A) (A) (A) (A) (A) (A) (A)
                 (A) (A) (A) (A) (A) (A) (A) (A) (A) (A) (A) (A)
                 (A) (A) (A) (A) (A) (A) (A) (A) (A) (A) (A) (A)
                 (A) (A) (A) (A) (A) (A) (A) (A) (A) (A) (A) (A)
                 (A) (A) (A) (A) (A) (A) (A) (A) (A) (A) (A) (A)
                 (A) (A) (A) (A) (A) (A) (A) (A) (A) (A) (A) (A)
                 (A) (A) (A) (A) (A) (A) (A) (A) (A) (A) (A) (A)
                 (A) (A) (A) (A) (A) (A) (A) (A) (A) (A) (A) (A)
                 (A) (A) (A)
       Virtual   (A) (A) (A) (A) (A) (A) (A) (A) (A) (A) (A) (A)
                 (A) (A) (A) (A) (A) (A) (A) (A) (A) (A) (A) (A)
                 (A) (A) (A) (A) (A) (A) (A) (A) (A) (A) (A) (A)
                 (A) (A) (A) (A) (A) (A) (A) (A) (A) (A) (A) (A)
                 (A) (A) (A) (A) (A) (A) (A) (A) (A) (A) (A) (A)
                 (A) (A) (A) (A) (A) (A) (A) (A) (A) (A) (A) (A)
                 (A) (A) (A) (A) (A) (A) (A) (A) (A) (A) (A) (A)
                 (A) (A) (A) (A) (A) (A) (A) (A) (A) (A) (A) (A)
                 (A) (A) (A) (A) (A) (A) (A) (A) (A) (A) (A) (A)
                 (A) (A) (A) (A) (A) (A) (A) (A) (A) (A) (A) (A)
                 (A) (A) (A) (A) (A) (A) (A) (A) (A) (A) (A) (A)
                 (A) (A) (A) (A) (A) (A) (A) (A) (A) (A) (A) (A)
                 (A) (A) (A) (A) (A) (A) (A) (A) (A) (A) (A) (A)
                 (A) (A) (A) (A) (A) (A) (A) (A) (A) (A) (A) (A)
                 (A) (A) (A) (A) (A) (A) (A) (A) (A) (A) (A) (A)
                 (A) (A) (A) (A) (A) (A) (A) (A) (A) (A) (A) (A)
                 (A) (A) (A) (A) (A) (A) (A) (A) (A) (A) (A) (A)
                 (A) (A) (A) (A) (A) (A) (A) (A) (A) (A) (A) (A)
                 (A) (A) (A) (A) (A) (A) (A) (A) (A) (A) (A) (A)
                 (A) (A) (A) (A) (A) (A) (A) (A) (A) (A) (A) (A)
                 (A) (A) (A) (A) (A) (A) (A) (A) (A) (A) (A) (A)
                 (A) (A) (A) (A) (A) (A) (A) (A) (A) (A) (A) (A)
                 (A) (A) (A) (A) (A) (A) (A) (A) (A) (A) (A) (A)
                 (A) (A) (A) (A) (A) (A) (A) (A) (A) (A) (A) (A)
                 (A) (A) (A) (A) (A) (A) (A) (A) (A) (A) (A) (A)
                 (A) (A) (A) (A) (A) (A) (A) (A) (A) (A) (A) (A)
                 (A) (A) (A) (A) (A) (A) (A) (A) (A) (A) (A) (A)
                 (A) (A) (A) (A) (A) (A) (A) (A) (A) (A) (A) (A)
                 (A) (A) (A) (A) (A) (A) (A) (A) (A) (A) (A) (A)
                 (A) (A) (A) (A) (A) (A) (A) (A) (A) (A) (A) (A)
                 (A) (A) (A) (A) (A) (A) (A) (A) (A) (A) (A) (A)
                 (A) (A) (A) (A) (A) (A) (A) (A) (A) (A) (A) (A)
                 (A) (A) (A) (A) (A) (A) (A) (A) (A) (A) (A) (A)
                 (A) (A) (A) (A) (A) (A) (A) (A) (A) (A) (A) (A)
                 (A) (A) (A) (A) (A) (A) (A) (A) (A) (A) (A) (A)
                 (A) (A) (A) (A) (A) (A) (A) (A) (A) (A) (A) (A)
                 (A) (A) (A) (A) (A) (A) (A) (A) (A) (A) (A) (A)
                 (A) (A) (A) (A) (A) (A) (A) (A) (A) (A) (A) (A)
                 (A) (A) (A) (A) (A) (A) (A) (A) (A) (A) (A) (A)
                 (A) (A) (A)
 The electronic state is 1-A.
 Alpha  occ. eigenvalues --  -10.19378 -10.19375 -10.19351 -10.19343 -10.19287
 Alpha  occ. eigenvalues --  -10.19280 -10.19269 -10.19247 -10.19234 -10.19222
 Alpha  occ. eigenvalues --  -10.19219 -10.19213 -10.19213 -10.19189 -10.19188
 Alpha  occ. eigenvalues --  -10.19169 -10.19146 -10.19142 -10.19125 -10.19120
 Alpha  occ. eigenvalues --  -10.19103 -10.19079 -10.19051 -10.19040 -10.19026
 Alpha  occ. eigenvalues --  -10.18947 -10.17994 -10.17923  -0.82879  -0.82572
 Alpha  occ. eigenvalues --   -0.82200  -0.81597  -0.80828  -0.79915  -0.78854
 Alpha  occ. eigenvalues --   -0.77648  -0.76311  -0.74832  -0.73362  -0.71729
 Alpha  occ. eigenvalues --   -0.70259  -0.68477  -0.64987  -0.62685  -0.61462
 Alpha  occ. eigenvalues --   -0.59593  -0.58244  -0.57374  -0.56850  -0.56167
 Alpha  occ. eigenvalues --   -0.55975  -0.55200  -0.55009  -0.54497  -0.52609
 Alpha  occ. eigenvalues --   -0.50180  -0.50018  -0.48501  -0.47690  -0.47519
 Alpha  occ. eigenvalues --   -0.46718  -0.45882  -0.45519  -0.44606  -0.44128
 Alpha  occ. eigenvalues --   -0.43216  -0.42358  -0.41438  -0.40891  -0.39925
 Alpha  occ. eigenvalues --   -0.39296  -0.38835  -0.38641  -0.37915  -0.37590
 Alpha  occ. eigenvalues --   -0.37271  -0.36983  -0.36365  -0.35940  -0.35749
 Alpha  occ. eigenvalues --   -0.35197  -0.34899  -0.34825  -0.34492  -0.34346
 Alpha  occ. eigenvalues --   -0.34234  -0.33751  -0.33600  -0.33202  -0.32625
 Alpha  occ. eigenvalues --   -0.31472  -0.30117  -0.28591  -0.26867  -0.24985
 Alpha  occ. eigenvalues --   -0.22986  -0.20895  -0.18846  -0.17098
 Alpha virt. eigenvalues --   -0.08270  -0.06037  -0.03967  -0.01495   0.00535
 Alpha virt. eigenvalues --    0.02804   0.04735   0.06805   0.07854   0.08004
 Alpha virt. eigenvalues --    0.08445   0.09046   0.09070   0.09579   0.09891
 Alpha virt. eigenvalues --    0.09991   0.10971   0.11748   0.12021   0.12222
 Alpha virt. eigenvalues --    0.12463   0.12579   0.12625   0.13287   0.13520
 Alpha virt. eigenvalues --    0.14124   0.14314   0.14319   0.14781   0.14947
 Alpha virt. eigenvalues --    0.15114   0.15469   0.16116   0.16481   0.17772
 Alpha virt. eigenvalues --    0.18234   0.19329   0.19674   0.19928   0.20517
 Alpha virt. eigenvalues --    0.21267   0.22377   0.22901   0.25875   0.27138
 Alpha virt. eigenvalues --    0.27262   0.28190   0.28638   0.29042   0.30323
 Alpha virt. eigenvalues --    0.31539   0.31961   0.32658   0.33173   0.33624
 Alpha virt. eigenvalues --    0.34643   0.35989   0.36158   0.36230   0.37027
 Alpha virt. eigenvalues --    0.37969   0.38716   0.39825   0.40800   0.41688
 Alpha virt. eigenvalues --    0.42018   0.42341   0.44343   0.44904   0.44971
 Alpha virt. eigenvalues --    0.47381   0.48137   0.49573   0.51348   0.51699
 Alpha virt. eigenvalues --    0.52025   0.52303   0.52611   0.53246   0.53560
 Alpha virt. eigenvalues --    0.54164   0.54707   0.54965   0.55213   0.55976
 Alpha virt. eigenvalues --    0.56503   0.56971   0.57374   0.57534   0.57918
 Alpha virt. eigenvalues --    0.58225   0.58786   0.58957   0.59200   0.59323
 Alpha virt. eigenvalues --    0.59354   0.60283   0.60575   0.60580   0.60861
 Alpha virt. eigenvalues --    0.61179   0.61292   0.62318   0.62805   0.63071
 Alpha virt. eigenvalues --    0.63108   0.63579   0.64430   0.64596   0.64876
 Alpha virt. eigenvalues --    0.65096   0.65317   0.65650   0.65664   0.66263
 Alpha virt. eigenvalues --    0.66462   0.66632   0.67944   0.68004   0.68732
 Alpha virt. eigenvalues --    0.69461   0.69770   0.70397   0.71152   0.72387
 Alpha virt. eigenvalues --    0.72722   0.74245   0.75261   0.75959   0.78750
 Alpha virt. eigenvalues --    0.79535   0.79840   0.80709   0.81257   0.81748
 Alpha virt. eigenvalues --    0.82855   0.83025   0.83785   0.83937   0.84586
 Alpha virt. eigenvalues --    0.84757   0.85096   0.85284   0.85631   0.86210
 Alpha virt. eigenvalues --    0.86523   0.86752   0.87054   0.87206   0.87684
 Alpha virt. eigenvalues --    0.88022   0.88258   0.89088   0.89659   0.90820
 Alpha virt. eigenvalues --    0.91244   0.91523   0.91851   0.92155   0.92486
 Alpha virt. eigenvalues --    0.93006   0.93284   0.93746   0.94227   0.95362
 Alpha virt. eigenvalues --    0.96647   0.97027   0.97606   0.99914   1.02691
 Alpha virt. eigenvalues --    1.03311   1.03515   1.04033   1.04438   1.05284
 Alpha virt. eigenvalues --    1.05714   1.06148   1.07020   1.07319   1.08035
 Alpha virt. eigenvalues --    1.08814   1.09431   1.09695   1.10387   1.11169
 Alpha virt. eigenvalues --    1.11927   1.14434   1.16850   1.17467   1.18791
 Alpha virt. eigenvalues --    1.20486   1.20918   1.21278   1.22342   1.24454
 Alpha virt. eigenvalues --    1.27021   1.27754   1.28213   1.29125   1.29554
 Alpha virt. eigenvalues --    1.29678   1.30107   1.30185   1.30375   1.31024
 Alpha virt. eigenvalues --    1.31149   1.31157   1.31672   1.31740   1.32187
 Alpha virt. eigenvalues --    1.32537   1.32820   1.33076   1.33342   1.33743
 Alpha virt. eigenvalues --    1.34553   1.36539   1.37756   1.37801   1.38474
 Alpha virt. eigenvalues --    1.40725   1.41584   1.42985   1.43742   1.43974
 Alpha virt. eigenvalues --    1.45737   1.45915   1.46271   1.46552   1.47180
 Alpha virt. eigenvalues --    1.47217   1.48489   1.48643   1.49351   1.50638
 Alpha virt. eigenvalues --    1.51086   1.51367   1.51830   1.52028   1.53502
 Alpha virt. eigenvalues --    1.57375   1.68079   1.73941   1.75391   1.76284
 Alpha virt. eigenvalues --    1.76447   1.76563   1.76693   1.76830   1.77050
 Alpha virt. eigenvalues --    1.77375   1.78013   1.78117   1.78488   1.78813
 Alpha virt. eigenvalues --    1.83007   1.85666   1.85806   1.86048   1.86223
 Alpha virt. eigenvalues --    1.86250   1.88104   1.89697   1.90338   1.91910
 Alpha virt. eigenvalues --    1.92510   1.92639   1.92799   1.93439   1.93628
 Alpha virt. eigenvalues --    1.93841   1.94684   1.94839   1.95325   1.96428
 Alpha virt. eigenvalues --    1.96512   1.97548   1.97832   1.98184   1.98837
 Alpha virt. eigenvalues --    2.00318   2.02258   2.03053   2.03172   2.03758
 Alpha virt. eigenvalues --    2.04882   2.05315   2.06807   2.08523   2.08609
 Alpha virt. eigenvalues --    2.09450   2.10337   2.10752   2.11345   2.13035
 Alpha virt. eigenvalues --    2.13981   2.14378   2.15039   2.15971   2.16850
 Alpha virt. eigenvalues --    2.17910   2.18137   2.18791   2.19612   2.20680
 Alpha virt. eigenvalues --    2.20908   2.21800   2.22268   2.23429   2.24198
 Alpha virt. eigenvalues --    2.24594   2.26593   2.26673   2.28510   2.29142
 Alpha virt. eigenvalues --    2.30255   2.31850   2.32174   2.33883   2.34826
 Alpha virt. eigenvalues --    2.35678   2.37001   2.37886   2.38154   2.41389
 Alpha virt. eigenvalues --    2.41578   2.41595   2.44250   2.44865   2.45654
 Alpha virt. eigenvalues --    2.46373   2.46842   2.46845   2.47649   2.47928
 Alpha virt. eigenvalues --    2.48609   2.48660   2.49150   2.49863   2.50260
 Alpha virt. eigenvalues --    2.50350   2.51175   2.51924   2.51946   2.52609
 Alpha virt. eigenvalues --    2.52738   2.53180   2.53445   2.54167   2.54483
 Alpha virt. eigenvalues --    2.55587   2.55720   2.56761   2.57798   2.58281
 Alpha virt. eigenvalues --    2.58927   2.59085   2.60213   2.60366   2.61171
 Alpha virt. eigenvalues --    2.61199   2.62400   2.62514   2.63225   2.63785
 Alpha virt. eigenvalues --    2.64669   2.64745   2.65917   2.66716   2.67267
 Alpha virt. eigenvalues --    2.67650   2.68295   2.69080   2.69213   2.69582
 Alpha virt. eigenvalues --    2.70126   2.70348   2.70637   2.70792   2.71498
 Alpha virt. eigenvalues --    2.71889   2.72951   2.73601   2.74172   2.78713
 Alpha virt. eigenvalues --    2.79687   2.79823   2.83809   2.86160   2.86493
 Alpha virt. eigenvalues --    2.86708   2.87206   2.88887   2.91397   2.91802
 Alpha virt. eigenvalues --    2.92209   2.92747   2.93217   2.94163   2.95074
 Alpha virt. eigenvalues --    2.95578   2.97153   2.97369   2.98118   2.98977
 Alpha virt. eigenvalues --    2.99685   2.99727   2.99987   3.01556   3.03232
 Alpha virt. eigenvalues --    3.10406   3.16060   3.20276   3.27958   3.28026
 Alpha virt. eigenvalues --    3.32958   3.33181   3.34184   3.35113   3.35243
 Alpha virt. eigenvalues --    3.35433   3.36549   3.37682   3.38587   3.41270
 Alpha virt. eigenvalues --    3.43545   3.44663   3.49109   3.52167   3.52868
 Alpha virt. eigenvalues --    3.53994   3.55607   3.56020   3.59600   3.61011
 Alpha virt. eigenvalues --    3.62147   3.64075   3.65795   3.66606   3.69743
 Alpha virt. eigenvalues --    3.71033   3.73263   3.79286   4.10816   4.12247
 Alpha virt. eigenvalues --    4.13540   4.13734   4.13921   4.14081   4.14376
 Alpha virt. eigenvalues --    4.15092   4.15785   4.16955   4.17926   4.19454
 Alpha virt. eigenvalues --    4.20955   4.25706   4.26423   4.30789   4.34382
 Alpha virt. eigenvalues --    4.37872   4.41743   4.46333   4.50854   4.55951
 Alpha virt. eigenvalues --    4.60445   4.64942   4.68687   4.72064   4.74521
 Alpha virt. eigenvalues --    4.76471
          Condensed to atoms (all electrons):
 Mulliken charges:
               1
     1  C   -0.251230
     2  C   -0.033710
     3  C   -0.080654
     4  C   -0.073189
     5  C   -0.057005
     6  C   -0.106310
     7  C   -0.077214
     8  C   -0.083805
     9  C   -0.081262
    10  C   -0.080061
    11  C   -0.080251
    12  C   -0.081274
    13  C   -0.084583
    14  C   -0.076449
    15  C   -0.106777
    16  C   -0.055836
    17  C   -0.076806
    18  C   -0.082001
    19  C   -0.080344
    20  C   -0.078748
    21  C   -0.080171
    22  C   -0.079523
    23  C   -0.079300
    24  C   -0.080574
    25  C   -0.076941
    26  C   -0.077762
    27  C   -0.033660
    28  C   -0.251923
    29  H    0.095844
    30  H    0.084316
    31  H    0.081905
    32  H    0.081901
    33  H    0.082100
    34  H    0.080665
    35  H    0.080456
    36  H    0.079550
    37  H    0.080567
    38  H    0.080407
    39  H    0.080370
    40  H    0.080623
    41  H    0.079366
    42  H    0.080275
    43  H    0.080293
    44  H    0.081807
    45  H    0.080794
    46  H    0.080544
    47  H    0.080351
    48  H    0.080503
    49  H    0.080141
    50  H    0.080469
    51  H    0.080225
    52  H    0.080719
    53  H    0.080958
    54  H    0.081669
    55  H    0.083730
    56  H    0.095546
    57  H    0.095408
    58  H    0.095864
 Sum of Mulliken charges =  -0.00000
 Mulliken charges with hydrogens summed into heavy atoms:
               1
     1  C   -0.059522
     2  C    0.050606
     3  C    0.001250
     4  C    0.008711
     5  C    0.025095
     6  C   -0.025645
     7  C    0.003242
     8  C   -0.004256
     9  C   -0.000695
    10  C    0.000346
    11  C    0.000119
    12  C   -0.000651
    13  C   -0.005217
    14  C    0.003826
    15  C   -0.026484
    16  C    0.025971
    17  C    0.003988
    18  C   -0.001457
    19  C    0.000007
    20  C    0.001755
    21  C   -0.000030
    22  C    0.000946
    23  C    0.000925
    24  C    0.000145
    25  C    0.004016
    26  C    0.003907
    27  C    0.050070
    28  C   -0.060969
 Electronic spatial extent (au):  <R**2>=          63927.6966
 Charge=             -0.0000 electrons
 Dipole moment (field-independent basis, Debye):
    X=              0.0082    Y=             -0.1969    Z=              0.0094  Tot=              0.1973
 Quadrupole moment (field-independent basis, Debye-Ang):
   XX=           -157.7944   YY=           -147.8355   ZZ=           -182.3315
   XY=             -0.0248   XZ=              0.1165   YZ=             -0.5265
 Traceless Quadrupole moment (field-independent basis, Debye-Ang):
   XX=              4.8594   YY=             14.8183   ZZ=            -19.6777
   XY=             -0.0248   XZ=              0.1165   YZ=             -0.5265
 Octapole moment (field-independent basis, Debye-Ang**2):
  XXX=             75.4237  YYY=             -5.3628  ZZZ=              0.0069  XYY=             -6.1982
  XXY=            -77.9874  XXZ=              5.0839  XZZ=              0.6512  YZZ=             -0.8254
  YYZ=             -0.0578  XYZ=             -5.5570
 Hexadecapole moment (field-independent basis, Debye-Ang**3):
 XXXX=         -82638.2203 YYYY=          -1785.6161 ZZZZ=           -189.9928 XXXY=             -4.9064
 XXXZ=             27.0018 YYYX=            -43.5588 YYYZ=             -3.7211 ZZZX=              0.8091
 ZZZY=             -0.5038 XXYY=         -13592.0929 XXZZ=         -16158.6684 YYZZ=           -389.6757
 XXYZ=            -42.4783 YYXZ=             -8.6570 ZZXY=             -2.2991
 N-N= 1.738619660049D+03 E-N=-5.986504410949D+03  KE= 1.073972823335D+03
 Calling FoFJK, ICntrl=      2127 FMM=F ISym2X=0 I1Cent= 0 IOpClX= 0 NMat=1 NMatS=1 NMatT=0.
 ***** Axes restored to original set *****
 -------------------------------------------------------------------
 Center     Atomic                   Forces (Hartrees/Bohr)
 Number     Number              X              Y              Z
 -------------------------------------------------------------------
      1        6          -0.008812347    0.003258746    0.000777403
      2        6           0.016377920   -0.015093080    0.011541639
      3        6          -0.025968265    0.016554076   -0.007690086
      4        6           0.031312738   -0.017962611    0.006440166
      5        6          -0.028444900    0.019878334   -0.010976169
      6        6           0.032220095   -0.012068276   -0.002807042
      7        6          -0.029443953    0.011444312    0.001985152
      8        6           0.030594070   -0.010765468   -0.003569697
      9        6          -0.030260443    0.014004607   -0.001386262
     10        6           0.030254836   -0.014212556    0.001448687
     11        6          -0.031135085    0.011255915    0.003510895
     12        6           0.031387192   -0.011268994   -0.003384893
     13        6          -0.030298166    0.013795971   -0.001134446
     14        6           0.030158697   -0.012750499   -0.000504234
     15        6          -0.032623079    0.015170049   -0.001615373
     16        6           0.035531827   -0.006984422   -0.012738259
     17        6          -0.037723905    0.011496871    0.007127140
     18        6           0.036380016   -0.010014587   -0.008569757
     19        6          -0.036860910    0.009812106    0.009093571
     20        6           0.036319200   -0.009371568   -0.009404840
     21        6          -0.036284479    0.009047810    0.009790448
     22        6           0.035737036   -0.008726875   -0.009921461
     23        6          -0.035435117    0.008186800    0.010509253
     24        6           0.034347337   -0.007794415   -0.010405156
     25        6          -0.033221244    0.006418939    0.011832625
     26        6           0.029381785   -0.005055930   -0.011473359
     27        6          -0.020606180   -0.000212553    0.014128513
     28        6           0.008697209   -0.003407380   -0.000296046
     29        1          -0.002299977    0.000500040    0.000719055
     30        1           0.004815455   -0.000398942   -0.002406905
     31        1          -0.003274831    0.000639751    0.001131907
     32        1           0.003129790   -0.000600202   -0.001076438
     33        1          -0.001655506   -0.000942269    0.002371009
     34        1           0.000178787    0.000301957   -0.000519210
     35        1           0.003413175    0.000129093   -0.002314722
     36        1          -0.002327344   -0.000510932    0.002248062
     37        1           0.001463559   -0.002078454    0.002105126
     38        1          -0.002063454    0.002379811   -0.002218771
     39        1           0.003185191    0.000249275   -0.002408199
     40        1          -0.002408044   -0.000448196    0.002257931
     41        1           0.001159243   -0.001892445    0.002076496
     42        1          -0.002559623    0.002520160   -0.002203484
     43        1           0.000148627    0.000219387   -0.000498813
     44        1           0.000790522   -0.001798179    0.002279699
     45        1          -0.002755238    0.001718808   -0.000880090
     46        1           0.002635639   -0.001757521    0.000949353
     47        1          -0.002718884    0.001654846   -0.000832447
     48        1           0.002673153   -0.001711116    0.000878793
     49        1          -0.002740670    0.001642408   -0.000818407
     50        1           0.002702812   -0.001684771    0.000846306
     51        1          -0.002744765    0.001631534   -0.000809950
     52        1           0.002720637   -0.001650205    0.000806747
     53        1          -0.002729149    0.001616706   -0.000800328
     54        1           0.002933172   -0.001717403    0.000795552
     55        1          -0.004051488    0.002927512   -0.002040121
     56        1           0.002091165   -0.001179811    0.000500971
     57        1           0.000147444   -0.002402590    0.003796474
     58        1          -0.001441279   -0.001993574    0.003755994
 -------------------------------------------------------------------
 Cartesian Forces:  Max     0.037723905 RMS     0.013629619

 GradGradGradGradGradGradGradGradGradGradGradGradGradGradGradGradGradGrad
 Berny optimization.
 FormGI is forming the generalized inverse of G from B-inverse, IUseBI=4.
 Internal  Forces:  Max     0.022415594 RMS     0.007242670
 Search for a local minimum.
 Step number   1 out of a maximum of  259
 All quantities printed in internal units (Hartrees-Bohrs-Radians)
 Mixed Optimization -- RFO/linear search
 Second derivative matrix not updated -- first step.
 ITU=  0
     Eigenvalues ---    0.00890   0.00896   0.00923   0.00932   0.00942
     Eigenvalues ---    0.01043   0.01044   0.01055   0.01055   0.01055
     Eigenvalues ---    0.01056   0.01064   0.01064   0.01861   0.01863
     Eigenvalues ---    0.01864   0.01867   0.01882   0.01885   0.01887
     Eigenvalues ---    0.01896   0.01899   0.01903   0.01958   0.01960
     Eigenvalues ---    0.01968   0.01969   0.01974   0.01975   0.01976
     Eigenvalues ---    0.01976   0.01976   0.01977   0.01977   0.01977
     Eigenvalues ---    0.01981   0.01982   0.01998   0.01998   0.02744
     Eigenvalues ---    0.02746   0.02752   0.02753   0.02818   0.02822
     Eigenvalues ---    0.02884   0.02888   0.02888   0.02888   0.02889
     Eigenvalues ---    0.02889   0.02949   0.02949   0.02950   0.02950
     Eigenvalues ---    0.16000   0.16000   0.16000   0.16000   0.16000
     Eigenvalues ---    0.16000   0.16000   0.16000   0.16000   0.16000
     Eigenvalues ---    0.16000   0.16000   0.16000   0.16000   0.16000
     Eigenvalues ---    0.16000   0.16000   0.16000   0.16000   0.16000
     Eigenvalues ---    0.16000   0.16000   0.16000   0.16000   0.16000
     Eigenvalues ---    0.16000   0.16000   0.16000   0.16000   0.16000
     Eigenvalues ---    0.22000   0.22000   0.22000   0.22000   0.22000
     Eigenvalues ---    0.22000   0.22000   0.22000   0.22000   0.22000
     Eigenvalues ---    0.22000   0.22000   0.22000   0.22000   0.22000
     Eigenvalues ---    0.22000   0.22000   0.22000   0.22000   0.22000
     Eigenvalues ---    0.22000   0.22000   0.22000   0.22000   0.22000
     Eigenvalues ---    0.22000   0.33383   0.33427   0.33656   0.33729
     Eigenvalues ---    0.33812   0.34682   0.34685   0.34782   0.34784
     Eigenvalues ---    0.34786   0.34792   0.34857   0.34861   0.35066
     Eigenvalues ---    0.35068   0.35070   0.35072   0.35074   0.35075
     Eigenvalues ---    0.35089   0.35089   0.35095   0.35099   0.35102
     Eigenvalues ---    0.35107   0.35165   0.35166   0.35183   0.35186
     Eigenvalues ---    0.35280   0.35280   0.35366   0.35367   0.35594
     Eigenvalues ---    0.35616   0.35718   0.35753   0.35771   0.35775
     Eigenvalues ---    0.35847   0.35860   0.35867   0.35872   0.54929
     Eigenvalues ---    0.54958   0.55046   0.55063   0.56132   0.56189
     Eigenvalues ---    0.57232   0.57294   0.57296   0.57307   0.57312
     Eigenvalues ---    0.57323   0.58351   0.58363
 RFO step:  Lambda=-3.76427615D-02 EMin= 8.90212897D-03
 Linear search not attempted -- first point.
 Maximum step size (   0.300) exceeded in Quadratic search.
    -- Step size scaled by   0.862
 Iteration  1 RMS(Cart)=  0.10094660 RMS(Int)=  0.00043442
 Iteration  2 RMS(Cart)=  0.00255122 RMS(Int)=  0.00000172
 Iteration  3 RMS(Cart)=  0.00000090 RMS(Int)=  0.00000171
 Variable       Old X    -DE/DX   Delta X   Delta X   Delta X     New X
                                 (Linear)    (Quad)   (Total)
    R1        2.52260   0.01213   0.00000   0.01684   0.01684   2.53944
    R2        2.05222  -0.00015   0.00000  -0.00033  -0.00033   2.05189
    R3        2.05084   0.00013   0.00000   0.00028   0.00028   2.05112
    R4        2.79207  -0.01453   0.00000  -0.03243  -0.03243   2.75964
    R5        2.05379   0.00057   0.00000   0.00126   0.00126   2.05505
    R6        2.53146   0.01921   0.00000   0.02712   0.02712   2.55859
    R7        2.05531  -0.00019   0.00000  -0.00041  -0.00041   2.05490
    R8        2.79494  -0.01966   0.00000  -0.04409  -0.04409   2.75085
    R9        2.05565  -0.00019   0.00000  -0.00042  -0.00042   2.05523
   R10        2.54090   0.01372   0.00000   0.01974   0.01974   2.56064
   R11        2.04686   0.00209   0.00000   0.00457   0.00457   2.05143
   R12        2.81090  -0.01792   0.00000  -0.04121  -0.04121   2.76969
   R13        2.05409   0.00053   0.00000   0.00118   0.00118   2.05527
   R14        2.55169   0.00535   0.00000   0.00785   0.00785   2.55954
   R15        2.04301   0.00374   0.00000   0.00813   0.00813   2.05114
   R16        2.81607  -0.01990   0.00000  -0.04613  -0.04613   2.76994
   R17        2.04470   0.00320   0.00000   0.00698   0.00698   2.05167
   R18        2.55091   0.00653   0.00000   0.00957   0.00957   2.56048
   R19        2.04441   0.00319   0.00000   0.00696   0.00696   2.05138
   R20        2.81214  -0.01930   0.00000  -0.04448  -0.04448   2.76766
   R21        2.04322   0.00359   0.00000   0.00782   0.00782   2.05104
   R22        2.55195   0.00597   0.00000   0.00877   0.00877   2.56073
   R23        2.04291   0.00370   0.00000   0.00805   0.00805   2.05096
   R24        2.81684  -0.02033   0.00000  -0.04720  -0.04720   2.76964
   R25        2.04435   0.00322   0.00000   0.00702   0.00702   2.05137
   R26        2.55076   0.00646   0.00000   0.00946   0.00946   2.56022
   R27        2.04525   0.00300   0.00000   0.00655   0.00655   2.05180
   R28        2.80948  -0.01835   0.00000  -0.04210  -0.04210   2.76738
   R29        2.04283   0.00380   0.00000   0.00827   0.00827   2.05110
   R30        2.54139   0.01486   0.00000   0.02139   0.02139   2.56278
   R31        2.05407   0.00054   0.00000   0.00119   0.00119   2.05525
   R32        2.79490  -0.02140   0.00000  -0.04798  -0.04798   2.74692
   R33        2.04721   0.00198   0.00000   0.00433   0.00433   2.05154
   R34        2.53200   0.02242   0.00000   0.03169   0.03169   2.56369
   R35        2.05568  -0.00021   0.00000  -0.00047  -0.00047   2.05522
   R36        2.79330  -0.02000   0.00000  -0.04474  -0.04474   2.74857
   R37        2.05502  -0.00005   0.00000  -0.00012  -0.00012   2.05491
   R38        2.53148   0.02223   0.00000   0.03140   0.03140   2.56288
   R39        2.05562  -0.00019   0.00000  -0.00043  -0.00043   2.05519
   R40        2.79328  -0.01958   0.00000  -0.04380  -0.04380   2.74947
   R41        2.05509  -0.00010   0.00000  -0.00021  -0.00021   2.05488
   R42        2.53138   0.02186   0.00000   0.03087   0.03087   2.56225
   R43        2.05558  -0.00018   0.00000  -0.00039  -0.00039   2.05518
   R44        2.79323  -0.01912   0.00000  -0.04277  -0.04277   2.75046
   R45        2.05515  -0.00011   0.00000  -0.00024  -0.00024   2.05491
   R46        2.53133   0.02108   0.00000   0.02976   0.02976   2.56109
   R47        2.05554  -0.00016   0.00000  -0.00035  -0.00035   2.05518
   R48        2.79314  -0.01805   0.00000  -0.04036  -0.04036   2.75278
   R49        2.05521  -0.00014   0.00000  -0.00030  -0.00030   2.05491
   R50        2.53124   0.01883   0.00000   0.02658   0.02658   2.55782
   R51        2.05554  -0.00015   0.00000  -0.00033  -0.00033   2.05522
   R52        2.79202  -0.01425   0.00000  -0.03181  -0.03181   2.76021
   R53        2.05531  -0.00021   0.00000  -0.00047  -0.00047   2.05484
   R54        2.52269   0.01194   0.00000   0.01657   0.01657   2.53926
   R55        2.05374   0.00060   0.00000   0.00133   0.00133   2.05507
   R56        2.05223  -0.00015   0.00000  -0.00033  -0.00033   2.05190
   R57        2.05084   0.00014   0.00000   0.00032   0.00032   2.05115
    A1        2.11477   0.00029   0.00000   0.00128   0.00128   2.11605
    A2        2.09359   0.00446   0.00000   0.01944   0.01944   2.11303
    A3        2.07483  -0.00475   0.00000  -0.02072  -0.02072   2.05411
    A4        2.11460   0.01168   0.00000   0.03908   0.03908   2.15367
    A5        2.07580  -0.00033   0.00000   0.00451   0.00451   2.08031
    A6        2.09279  -0.01135   0.00000  -0.04359  -0.04359   2.04920
    A7        2.10915   0.01220   0.00000   0.04082   0.04082   2.14996
    A8        2.08208  -0.00971   0.00000  -0.03618  -0.03618   2.04589
    A9        2.09196  -0.00248   0.00000  -0.00463  -0.00463   2.08733
   A10        2.11407   0.01168   0.00000   0.03908   0.03908   2.15315
   A11        2.08780  -0.00239   0.00000  -0.00448  -0.00448   2.08332
   A12        2.08132  -0.00929   0.00000  -0.03460  -0.03460   2.04672
   A13        2.10105   0.01132   0.00000   0.03788   0.03788   2.13893
   A14        2.06384  -0.00792   0.00000  -0.02882  -0.02882   2.03502
   A15        2.11830  -0.00339   0.00000  -0.00906  -0.00906   2.10924
   A16        2.18861   0.00833   0.00000   0.02788   0.02788   2.21649
   A17        2.06973  -0.00383   0.00000  -0.01248  -0.01248   2.05725
   A18        2.02485  -0.00450   0.00000  -0.01540  -0.01540   2.00944
   A19        2.18116   0.00609   0.00000   0.02039   0.02039   2.20156
   A20        2.00016  -0.00126   0.00000  -0.00241  -0.00241   1.99775
   A21        2.10186  -0.00483   0.00000  -0.01798  -0.01798   2.08388
   A22        2.18016   0.00777   0.00000   0.02601   0.02601   2.20617
   A23        2.09573  -0.00461   0.00000  -0.01618  -0.01618   2.07955
   A24        2.00730  -0.00316   0.00000  -0.00983  -0.00983   1.99747
   A25        2.17846   0.00785   0.00000   0.02629   0.02629   2.20474
   A26        2.00721  -0.00307   0.00000  -0.00941  -0.00941   1.99779
   A27        2.09752  -0.00478   0.00000  -0.01687  -0.01687   2.08065
   A28        2.18597   0.00627   0.00000   0.02098   0.02098   2.20695
   A29        2.09892  -0.00455   0.00000  -0.01668  -0.01668   2.08224
   A30        1.99829  -0.00172   0.00000  -0.00430  -0.00430   1.99399
   A31        2.18675   0.00604   0.00000   0.02022   0.02022   2.20697
   A32        1.99700  -0.00147   0.00000  -0.00334  -0.00334   1.99365
   A33        2.09944  -0.00457   0.00000  -0.01688  -0.01688   2.08256
   A34        2.17800   0.00795   0.00000   0.02661   0.02661   2.20461
   A35        2.09768  -0.00485   0.00000  -0.01712  -0.01712   2.08056
   A36        2.00751  -0.00310   0.00000  -0.00948  -0.00948   1.99802
   A37        2.17828   0.00816   0.00000   0.02730   0.02730   2.20559
   A38        2.01004  -0.00358   0.00000  -0.01149  -0.01149   1.99856
   A39        2.09486  -0.00458   0.00000  -0.01582  -0.01582   2.07904
   A40        2.18276   0.00574   0.00000   0.01922   0.01922   2.20198
   A41        2.10206  -0.00473   0.00000  -0.01772  -0.01772   2.08434
   A42        1.99837  -0.00101   0.00000  -0.00151  -0.00151   1.99687
   A43        2.19173   0.00765   0.00000   0.02560   0.02560   2.21733
   A44        2.02220  -0.00401   0.00000  -0.01359  -0.01359   2.00861
   A45        2.06925  -0.00364   0.00000  -0.01201  -0.01201   2.05725
   A46        2.09567   0.01230   0.00000   0.04118   0.04118   2.13685
   A47        2.11979  -0.00383   0.00000  -0.01045  -0.01045   2.10933
   A48        2.06773  -0.00848   0.00000  -0.03072  -0.03072   2.03700
   A49        2.12049   0.01066   0.00000   0.03567   0.03567   2.15616
   A50        2.07747  -0.00878   0.00000  -0.03289  -0.03289   2.04458
   A51        2.08522  -0.00188   0.00000  -0.00278  -0.00278   2.08245
   A52        2.10293   0.01353   0.00000   0.04527   0.04527   2.14820
   A53        2.09406  -0.00337   0.00000  -0.00781  -0.00781   2.08625
   A54        2.08619  -0.01016   0.00000  -0.03746  -0.03746   2.04873
   A55        2.11821   0.01148   0.00000   0.03843   0.03843   2.15664
   A56        2.07785  -0.00912   0.00000  -0.03394  -0.03394   2.04390
   A57        2.08713  -0.00237   0.00000  -0.00449  -0.00449   2.08264
   A58        2.10445   0.01345   0.00000   0.04502   0.04502   2.14947
   A59        2.09309  -0.00334   0.00000  -0.00775  -0.00775   2.08534
   A60        2.08564  -0.01011   0.00000  -0.03727  -0.03727   2.04838
   A61        2.11638   0.01180   0.00000   0.03949   0.03949   2.15586
   A62        2.07890  -0.00928   0.00000  -0.03451  -0.03451   2.04439
   A63        2.08791  -0.00251   0.00000  -0.00498  -0.00498   2.08293
   A64        2.10630   0.01317   0.00000   0.04408   0.04408   2.15038
   A65        2.09228  -0.00320   0.00000  -0.00727  -0.00727   2.08501
   A66        2.08460  -0.00997   0.00000  -0.03680  -0.03680   2.04780
   A67        2.11442   0.01212   0.00000   0.04055   0.04055   2.15496
   A68        2.08001  -0.00944   0.00000  -0.03503  -0.03503   2.04498
   A69        2.08876  -0.00268   0.00000  -0.00552  -0.00552   2.08324
   A70        2.10819   0.01280   0.00000   0.04283   0.04283   2.15102
   A71        2.09151  -0.00303   0.00000  -0.00671  -0.00671   2.08480
   A72        2.08349  -0.00977   0.00000  -0.03612  -0.03612   2.04737
   A73        2.11266   0.01245   0.00000   0.04166   0.04166   2.15431
   A74        2.08111  -0.00958   0.00000  -0.03548  -0.03548   2.04563
   A75        2.08942  -0.00286   0.00000  -0.00618  -0.00618   2.08324
   A76        2.10939   0.01231   0.00000   0.04121   0.04121   2.15060
   A77        2.09158  -0.00258   0.00000  -0.00498  -0.00498   2.08659
   A78        2.08222  -0.00974   0.00000  -0.03623  -0.03623   2.04599
   A79        2.11446   0.01178   0.00000   0.03942   0.03942   2.15388
   A80        2.09286  -0.01140   0.00000  -0.04374  -0.04374   2.04911
   A81        2.07587  -0.00038   0.00000   0.00433   0.00433   2.08019
   A82        2.11477   0.00028   0.00000   0.00121   0.00121   2.11599
   A83        2.09365   0.00447   0.00000   0.01949   0.01949   2.11314
   A84        2.07477  -0.00475   0.00000  -0.02071  -0.02071   2.05406
    D1       -0.00000   0.00000   0.00000   0.00004   0.00004   0.00004
    D2        3.14137   0.00001   0.00000   0.00012   0.00012   3.14149
    D3       -3.14143  -0.00000   0.00000  -0.00004  -0.00004  -3.14148
    D4       -0.00006   0.00000   0.00000   0.00003   0.00003  -0.00003
    D5        3.14031   0.00002   0.00000   0.00026   0.00026   3.14057
    D6       -0.00078   0.00000   0.00000   0.00007   0.00007  -0.00070
    D7       -0.00106   0.00001   0.00000   0.00018   0.00018  -0.00088
    D8        3.14104  -0.00000   0.00000  -0.00001  -0.00001   3.14103
    D9       -3.14098  -0.00001   0.00000  -0.00013  -0.00013  -3.14111
   D10       -0.00003   0.00001   0.00000   0.00008   0.00008   0.00006
   D11        0.00011   0.00000   0.00000   0.00005   0.00005   0.00016
   D12        3.14106   0.00002   0.00000   0.00026   0.00026   3.14132
   D13        3.13880   0.00004   0.00000   0.00056   0.00056   3.13936
   D14       -0.00181   0.00001   0.00000   0.00023   0.00023  -0.00158
   D15       -0.00216   0.00002   0.00000   0.00034   0.00034  -0.00182
   D16        3.14042  -0.00000   0.00000   0.00001   0.00001   3.14044
   D17       -3.14053  -0.00004   0.00000  -0.00054  -0.00054  -3.14107
   D18       -0.00005  -0.00001   0.00000  -0.00020  -0.00020  -0.00024
   D19        0.00005  -0.00002   0.00000  -0.00022  -0.00022  -0.00017
   D20        3.14053   0.00001   0.00000   0.00013   0.00013   3.14066
   D21       -0.00423  -0.00000   0.00000  -0.00007  -0.00007  -0.00431
   D22        3.13768   0.00001   0.00000   0.00005   0.00006   3.13774
   D23        3.13844  -0.00003   0.00000  -0.00041  -0.00041   3.13803
   D24       -0.00283  -0.00002   0.00000  -0.00028  -0.00028  -0.00311
   D25        3.14088  -0.00001   0.00000  -0.00008  -0.00008   3.14081
   D26       -0.00117  -0.00001   0.00000  -0.00016  -0.00016  -0.00133
   D27       -0.00105  -0.00002   0.00000  -0.00021  -0.00021  -0.00126
   D28        3.14008  -0.00002   0.00000  -0.00029  -0.00029   3.13979
   D29       -0.00576  -0.00000   0.00000  -0.00010  -0.00010  -0.00586
   D30        3.13706  -0.00002   0.00000  -0.00029  -0.00029   3.13677
   D31        3.13627   0.00000   0.00000  -0.00001  -0.00001   3.13626
   D32       -0.00409  -0.00001   0.00000  -0.00021  -0.00021  -0.00430
   D33       -3.14107  -0.00004   0.00000  -0.00057  -0.00057   3.14154
   D34       -0.00053  -0.00003   0.00000  -0.00041  -0.00041  -0.00094
   D35       -0.00077  -0.00003   0.00000  -0.00036  -0.00036  -0.00113
   D36        3.13977  -0.00002   0.00000  -0.00020  -0.00020   3.13957
   D37       -0.00556   0.00000   0.00000  -0.00002  -0.00002  -0.00558
   D38        3.13718  -0.00001   0.00000  -0.00024  -0.00024   3.13694
   D39        3.13703  -0.00001   0.00000  -0.00017  -0.00017   3.13686
   D40       -0.00342  -0.00002   0.00000  -0.00038  -0.00038  -0.00380
   D41       -3.14096  -0.00005   0.00000  -0.00075  -0.00075   3.14147
   D42       -0.00089  -0.00003   0.00000  -0.00044  -0.00044  -0.00132
   D43       -0.00058  -0.00004   0.00000  -0.00051  -0.00051  -0.00109
   D44        3.13949  -0.00002   0.00000  -0.00020  -0.00020   3.13929
   D45       -0.00709  -0.00001   0.00000  -0.00014  -0.00014  -0.00722
   D46        3.13501   0.00001   0.00000   0.00005   0.00005   3.13506
   D47        3.13595  -0.00003   0.00000  -0.00042  -0.00042   3.13553
   D48       -0.00514  -0.00001   0.00000  -0.00024  -0.00024  -0.00538
   D49        3.14047   0.00000   0.00000   0.00008   0.00008   3.14055
   D50       -0.00132  -0.00001   0.00000  -0.00020  -0.00020  -0.00152
   D51       -0.00165  -0.00001   0.00000  -0.00011  -0.00011  -0.00176
   D52        3.13975  -0.00003   0.00000  -0.00039  -0.00039   3.13935
   D53       -0.00572   0.00001   0.00000   0.00005   0.00005  -0.00567
   D54        3.13777  -0.00004   0.00000  -0.00061  -0.00061   3.13716
   D55        3.13606   0.00002   0.00000   0.00032   0.00032   3.13638
   D56       -0.00364  -0.00002   0.00000  -0.00033  -0.00033  -0.00397
   D57       -3.13937  -0.00007   0.00000  -0.00095  -0.00095  -3.14033
   D58        0.00012  -0.00002   0.00000  -0.00023  -0.00022  -0.00011
   D59        0.00028  -0.00002   0.00000  -0.00028  -0.00028  -0.00000
   D60        3.13977   0.00003   0.00000   0.00045   0.00045   3.14022
   D61        3.13528   0.00009   0.00000   0.00144   0.00144   3.13672
   D62       -0.00422   0.00004   0.00000   0.00065   0.00065  -0.00357
   D63       -0.00427   0.00004   0.00000   0.00072   0.00071  -0.00355
   D64        3.13942  -0.00002   0.00000  -0.00008  -0.00007   3.13935
   D65       -3.13897  -0.00004   0.00000  -0.00070  -0.00071  -3.13968
   D66        0.00041   0.00001   0.00000   0.00011   0.00011   0.00051
   D67        0.00052   0.00000   0.00000   0.00006   0.00006   0.00058
   D68        3.13990   0.00006   0.00000   0.00087   0.00088   3.14078
   D69        3.13514   0.00010   0.00000   0.00151   0.00150   3.13664
   D70       -0.00429   0.00004   0.00000   0.00067   0.00067  -0.00361
   D71       -0.00425   0.00004   0.00000   0.00066   0.00066  -0.00359
   D72        3.13951  -0.00002   0.00000  -0.00017  -0.00016   3.13935
   D73       -3.13892  -0.00005   0.00000  -0.00075  -0.00075  -3.13967
   D74        0.00053   0.00000   0.00000   0.00004   0.00004   0.00057
   D75        0.00049   0.00000   0.00000   0.00006   0.00006   0.00055
   D76        3.13994   0.00006   0.00000   0.00084   0.00085   3.14080
   D77        3.13572   0.00009   0.00000   0.00136   0.00135   3.13707
   D78       -0.00395   0.00004   0.00000   0.00063   0.00063  -0.00331
   D79       -0.00374   0.00003   0.00000   0.00054   0.00054  -0.00321
   D80        3.13978  -0.00002   0.00000  -0.00019  -0.00018   3.13960
   D81       -3.13929  -0.00004   0.00000  -0.00063  -0.00063  -3.13992
   D82        0.00053   0.00000   0.00000   0.00002   0.00002   0.00055
   D83        0.00036   0.00000   0.00000   0.00007   0.00007   0.00043
   D84        3.14019   0.00005   0.00000   0.00071   0.00072   3.14091
   D85        3.13699   0.00007   0.00000   0.00105   0.00105   3.13804
   D86       -0.00317   0.00003   0.00000   0.00052   0.00052  -0.00265
   D87       -0.00284   0.00002   0.00000   0.00038   0.00038  -0.00246
   D88        3.14019  -0.00002   0.00000  -0.00015  -0.00015   3.14004
   D89       -3.13998  -0.00003   0.00000  -0.00043  -0.00044  -3.14042
   D90        0.00042   0.00000   0.00000   0.00000   0.00000   0.00043
   D91        0.00017   0.00001   0.00000   0.00008   0.00008   0.00025
   D92        3.14058   0.00003   0.00000   0.00051   0.00052   3.14110
   D93        3.13870   0.00004   0.00000   0.00065   0.00065   3.13934
   D94       -0.00209   0.00002   0.00000   0.00036   0.00036  -0.00173
   D95       -0.00171   0.00001   0.00000   0.00020   0.00020  -0.00152
   D96        3.14068  -0.00001   0.00000  -0.00010  -0.00009   3.14059
   D97       -3.14079  -0.00001   0.00000  -0.00020  -0.00020  -3.14099
   D98        0.00024   0.00000   0.00000   0.00000   0.00000   0.00024
   D99       -0.00000   0.00001   0.00000   0.00008   0.00008   0.00007
   D100       3.14102   0.00002   0.00000   0.00028   0.00029   3.14131
   D101       3.14039   0.00002   0.00000   0.00026   0.00026   3.14065
   D102      -0.00095   0.00001   0.00000   0.00017   0.00017  -0.00078
   D103      -0.00064   0.00000   0.00000   0.00005   0.00005  -0.00059
   D104       3.14121  -0.00001   0.00000  -0.00005  -0.00005   3.14116
   D105       0.00003   0.00000   0.00000   0.00003   0.00003   0.00006
   D106      -3.14141  -0.00000   0.00000  -0.00005  -0.00005  -3.14146
   D107       3.14137   0.00001   0.00000   0.00012   0.00012   3.14149
   D108      -0.00007   0.00000   0.00000   0.00003   0.00003  -0.00004
         Item               Value     Threshold  Converged?
 Maximum Force            0.022416     0.000450     NO 
 RMS     Force            0.007243     0.000300     NO 
 Maximum Displacement     0.293221     0.001800     NO 
 RMS     Displacement     0.099729     0.001200     NO 
 Predicted change in Energy=-2.015850D-02
 GradGradGradGradGradGradGradGradGradGradGradGradGradGradGradGradGradGrad

 Stoichiometry    C28H30
 Framework group  C1[X(C28H30)]
 Deg. of freedom   168
 Full point group                 C1      NOp   1
 Largest Abelian subgroup         C1      NOp   1
 Largest concise Abelian subgroup C1      NOp   1
                         Standard orientation:                         
 ---------------------------------------------------------------------
 Center     Atomic      Atomic             Coordinates (Angstroms)
 Number     Number       Type             X           Y           Z
 ---------------------------------------------------------------------
      1          6           0       14.925012    3.068977   -0.039382
      2          6           0       14.265839    1.898502   -0.003178
      3          6           0       12.809145    1.795750   -0.011713
      4          6           0       12.149397    0.613953    0.023732
      5          6           0       10.697681    0.506885    0.014800
      6          6           0       10.054318   -0.685206    0.048190
      7          6           0        8.605385   -0.905909    0.042382
      8          6           0        7.651186    0.054709    0.006910
      9          6           0        6.201128   -0.159361   -0.000026
     10          6           0        5.566440   -1.356271    0.021491
     11          6           0        4.118051   -1.573367    0.014698
     12          6           0        3.160412   -0.614910   -0.008207
     13          6           0        1.711509   -0.835589   -0.015083
     14          6           0        1.081458   -2.034961   -0.007610
     15          6           0       -0.367059   -2.250221   -0.013303
     16          6           0       -1.334262   -1.299618   -0.020814
     17          6           0       -2.750243   -1.628188   -0.024426
     18          6           0       -3.735992   -0.696104   -0.026414
     19          6           0       -5.150164   -1.036138   -0.027699
     20          6           0       -6.143435   -0.112707   -0.024085
     21          6           0       -7.555595   -0.463002   -0.023072
     22          6           0       -8.554496    0.453806   -0.014353
     23          6           0       -9.965215    0.095633   -0.011364
     24          6           0      -10.967837    1.007411    0.001357
[...]
 -0.00000121,0.00000145,0.00000300,0.00000104,-0.00000195,-0.00000245,0
 .00000321,-0.00000159,0.00000244,-0.00000379,0.00000255,-0.00000489,0.
 00000062,0.00000257,0.00000525,-0.00000009,-0.00000511,-0.00000621,0.0
 0000343,-0.00000175,0.00000656,-0.00000563,0.00000583,-0.00000851,0.00
 000427,0.00000086,0.00000944,-0.00000585,0.00000192,-0.00001407,0.0000
 0403,-0.00000064,0.00001481,-0.00000900,0.00000485,-0.00001661,0.00001
 925,0.00000109,0.00002492,-0.00002005,0.00001067,-0.00005566,-0.000018
 14,-0.00001730,0.00007015,-0.00002894,0.00003909,-0.00000777,0.0001275
 3,0.00010128,0.00006125,-0.00005531,-0.00002702,-0.00016384,-0.0027352
 0,-0.00240767,0.01019294,0.00249904,-0.01590842,-0.09087829,-0.0035904
 2,0.09757457,-0.00000006,0.00000004,0.00000006,0.00000004,-0.00000037,
 0.00000021,0.,-0.00000007,0.00000005,0.00000011,-0.00000045,0.00000025
 ,-0.00000002,-0.00000008,0.00000022,0.00000032,-0.00000058,0.00000026,
 -0.00000020,0.00000014,-0.00000014,0.00000061,0.00000010,-0.00000029,-
 0.00000011,0.00000014,0.00000034,0.00000051,-0.00000045,0.00000041,-0.
 00000015,0.00000014,-0.00000017,0.00000069,0.00000003,-0.00000048,-0.0
 0000011,0.00000022,0.00000034,0.00000061,-0.00000034,0.00000054,-0.000
 00003,0.00000033,-0.00000026,0.00000065,0.00000026,-0.00000067,0.00000
 030,0.00000034,-0.00000048,0.00000083,0.00000046,-0.00000096,0.0000007
 5,0.00000105,-0.00000047,0.00000098,0.00000085,-0.00000114,-0.00000094
 ,-0.00000332,-0.00000182,-0.00000004,0.00000261,-0.00000163,0.00000690
 ,0.00000296,0.00000443,-0.00003406,0.00001615,0.00000709,-0.00003521,0
 .00011664,0.00020232,0.00004436,-0.00005992,0.00055917,0.00071504,0.00
 540148,-0.00118947,0.08516482,-0.00000090,0.00000049,-0.00000010,0.000
 00047,-0.00000114,0.00000032,-0.00000034,0.00000101,-0.00000044,0.0000
 0023,-0.00000109,0.00000050,-0.00000016,0.00000083,-0.00000048,0.00000
 009,-0.00000147,0.00000038,-0.00000015,0.00000093,-0.00000045,0.000001
 12,0.00000079,-0.00000086,-0.00000105,-0.00000054,0.00000042,0.0000004
 5,-0.00000156,0.00000090,-0.00000056,0.00000102,-0.00000100,0.00000124
 ,0.00000020,-0.00000164,-0.00000144,-0.00000050,0.00000134,0.00000103,
 -0.00000173,0.00000152,-0.00000149,0.00000084,-0.00000168,0.00000171,0
 .00000007,-0.00000107,-0.00000181,-0.00000030,0.00000062,-0.00000065,-
 0.00000485,-0.00000275,-0.00000155,0.00000003,0.00000091,0.00000974,0.
 00001729,0.00000427,-0.00000428,-0.00000652,-0.00000102,-0.00003872,-0
 .00007693,-0.00002580,0.00000852,0.00003084,0.00000623,0.00011481,0.00
 025210,0.00003745,0.00010041,-0.00008890,-0.00009201,-0.00387449,-0.00
 500443,-0.00141936,-0.00598315,0.00266490,0.01522759,-0.00261918,-0.04
 419950,0.03770983,0.00000006,-0.00000002,0.00000006,0.,0.00000016,-0.0
 0000002,0.00000003,0.00000003,0.00000007,-0.00000001,0.00000019,-0.000
 00002,0.00000003,0.00000004,0.00000001,-0.00000008,0.00000025,0.,0.000
 00008,-0.00000003,0.00000022,-0.00000030,0.00000003,0.00000027,0.00000
 015,0.00000005,0.00000003,-0.00000015,0.00000031,-0.00000003,0.0000001
 5,0.00000010,0.00000023,-0.00000022,0.00000021,0.00000034,0.00000023,0
 .00000029,0.,-0.00000018,0.00000050,-0.00000014,0.00000031,0.00000035,
 0.00000018,0.00000006,0.00000044,0.00000039,0.00000013,0.00000038,0.00
 000019,0.00000030,0.00000084,0.00000060,0.00000084,0.00000197,0.000000
 62,0.00000079,0.00000134,0.00000072,-0.00000366,-0.00000627,-0.0000027
 2,0.00000314,0.00000232,0.00000107,0.00000243,0.00001467,0.00000016,0.
 00002973,-0.00000958,-0.00000386,0.00012058,0.00029590,-0.00005148,0.0
 0047841,0.00015846,-0.00030505,0.00548536,0.00688016,0.00430529,0.0024
 1604,0.03528786,-0.00000026,0.00000017,0.00000006,0.00000023,-0.000000
 24,0.00000005,-0.00000027,0.00000028,-0.00000002,0.00000038,-0.0000002
 2,0.00000004,-0.00000045,0.00000019,0.00000009,0.00000068,-0.00000026,
 -0.00000009,-0.00000055,0.00000097,-0.00000041,0.00000119,-0.00000069,
 0.00000008,-0.00000171,0.00000007,0.00000086,0.00000212,-0.00000046,-0
 .00000061,-0.00000199,0.00000196,-0.00000158,0.00000312,-0.00000214,0.
 00000067,-0.00000420,0.00000081,0.00000279,0.00000548,-0.00000161,-0.0
 0000250,-0.00000600,0.00000419,-0.00000433,0.00000833,-0.00000489,0.00
 000263,-0.00001020,0.00000657,-0.00000589,0.00001398,-0.00000992,0.000
 00341,-0.00001809,0.00001215,-0.00001052,0.00003023,-0.00001001,0.0000
 0874,-0.00003766,0.00002264,-0.00002186,0.00004577,-0.00005666,0.00000
 086,-0.00007583,0.00006245,-0.00004074,0.00014029,0.00001842,0.0000534
 2,-0.00050488,0.00014178,0.00025309,0.00108765,-0.00312776,0.00060289,
 0.01011456,0.00250347,-0.01814815,0.09460007,0.03916299,-0.29529756,0.
 ,-0.00000005,0.,-0.00000001,-0.00000002,0.,0.,-0.00000006,0.,0.,-0.000
 00002,-0.00000002,-0.00000001,-0.00000006,-0.00000001,0.,-0.00000003,-
 0.00000002,-0.00000005,-0.00000005,0.00000006,-0.00000015,-0.00000002,
 0.00000009,0.00000002,-0.00000013,0.00000001,0.00000002,-0.00000010,0.
 ,-0.00000006,0.00000002,0.00000020,-0.00000015,0.00000011,0.00000024,0
 .00000008,-0.00000011,0.00000012,0.00000016,-0.00000012,0.00000007,-0.
 00000008,0.00000015,0.00000044,-0.00000019,0.00000015,0.00000042,-0.00
 000004,-0.00000002,0.00000067,-0.00000040,0.00000033,0.00000076,0.0000
 0019,0.00000030,0.00000137,-0.00000095,0.00000062,0.00000147,-0.000000
 79,-0.00000323,0.00000213,-0.00000324,0.00000186,0.00000337,0.00000605
 ,-0.00000063,0.00000876,-0.00003448,0.00001647,0.00000495,0.00019022,-
 0.00004559,0.00019247,-0.00109749,0.00050224,0.00039620,-0.00144667,0.
 00443097,-0.00045717,-0.10259651,-0.04522461,0.31442692,-0.00000655,0.
 00000384,0.00000012,0.00000368,-0.00000894,0.00000279,-0.00000276,0.00
 000775,-0.00000280,0.00000213,-0.00000893,0.00000459,-0.00000170,0.000
 00674,-0.00000317,0.00000166,-0.00001212,0.00000347,-0.00000221,0.0000
 0815,-0.00000246,0.00001014,0.00000635,-0.00000619,-0.00000900,-0.0000
 0403,0.00000515,0.00000531,-0.00001255,0.00000757,-0.00000595,0.000010
 83,-0.00000715,0.00001323,0.00000179,-0.00001233,-0.00001340,-0.000001
 55,0.00001325,0.00001323,-0.00001181,0.00001244,-0.00001485,0.00001273
 ,-0.00001416,0.00001696,-0.00000626,-0.00001160,-0.00001854,0.00000739
 ,0.00000663,0.00002465,-0.00000167,-0.00001187,-0.00002551,0.00000839,
 0.00000564,0.00001842,-0.00003372,-0.00002487,-0.00003887,0.00002122,0
 .00000641,0.00009887,0.00010041,0.00000479,-0.00012925,0.00002284,0.00
 001484,-0.00019660,-0.00048670,-0.00038461,-0.00057572,0.00025350,0.00
 042367,0.00264935,0.00485731,-0.00145290,-0.01068748,0.00520444,0.0063
 5056,-0.28772019,0.10661437,0.05788051,0.00000028,-0.00000007,-0.00000
 002,-0.00000010,0.00000146,-0.00000062,0.00000007,0.00000032,0.0000000
 2,-0.00000034,0.00000175,-0.00000074,0.00000013,0.00000035,-0.00000057
 ,-0.00000115,0.00000231,-0.00000073,0.00000088,-0.00000041,0.00000082,
 -0.00000235,-0.00000019,0.00000134,0.00000066,-0.00000027,-0.00000092,
 -0.00000193,0.00000214,-0.00000124,0.00000095,-0.00000026,0.00000074,-
 0.00000263,0.00000031,0.00000196,0.00000095,-0.00000007,-0.00000091,-0
 .00000257,0.00000228,-0.00000190,0.00000101,-0.00000059,0.00000059,-0.
 00000200,0.00000014,0.00000260,-0.00000022,0.00000003,0.00000137,-0.00
 000232,0.00000021,0.00000397,-0.00000108,-0.00000105,0.00000149,-0.000
 00248,0.00000040,0.00000518,0.00000333,0.00000798,0.00000457,-0.000002
 29,-0.00000078,0.00000684,-0.00001236,-0.00002743,-0.00000857,0.000012
 33,0.00000080,0.00001611,0.00002236,0.00007397,-0.00004288,0.00021275,
 -0.00024082,-0.00000627,-0.00038739,-0.00282613,-0.00114607,-0.0050976
 6,0.00375600,-0.00040740,0.30185531,0.00000415,-0.00000251,-0.00000020
 ,-0.00000232,0.00000579,-0.00000186,0.00000173,-0.00000504,0.00000176,
 -0.00000129,0.00000584,-0.00000312,0.00000100,-0.00000447,0.00000206,-
 0.00000095,0.00000795,-0.00000239,0.00000141,-0.00000512,0.00000129,-0
 .00000648,-0.00000452,0.00000404,0.00000543,0.00000255,-0.00000321,-0.
 00000293,0.00000818,-0.00000535,0.00000341,-0.00000678,0.00000398,-0.0
 0000811,-0.00000222,0.00000844,0.00000762,0.00000091,-0.00000781,-0.00
 000688,0.00000785,-0.00000921,0.00000786,-0.00000772,0.00000780,-0.000
 01051,-0.00000100,0.00000837,0.00000967,-0.00000247,-0.00000694,-0.000
 00596,0.00001065,0.00001494,0.00001009,-0.00000591,-0.00001005,-0.0000
 3678,-0.00004932,0.00000079,0.00002195,0.00000184,-0.00001184,0.000098
 67,0.00022280,0.00011132,0.00004380,-0.00007345,-0.00006332,-0.0005091
 4,-0.00115665,-0.00013011,0.00067746,0.00003641,-0.00043812,0.00426259
 ,0.00780405,0.00528751,0.01446957,-0.00144713,-0.00443194,0.10534508,-
 0.07752807,-0.01581693,-0.00000015,0.00000004,0.00000008,0.00000008,-0
 .00000096,0.00000047,-0.00000003,-0.00000021,0.00000006,0.00000026,-0.
 00000116,0.00000056,-0.00000007,-0.00000023,0.00000047,0.00000082,-0.0
 0000155,0.00000056,-0.00000062,0.00000029,-0.00000039,0.00000156,0.000
 00017,-0.00000075,-0.00000039,0.00000027,0.00000074,0.00000139,-0.0000
 0138,0.00000092,-0.00000059,0.00000036,-0.00000029,0.00000190,-0.00000
 002,-0.00000117,-0.00000053,0.00000042,0.00000072,0.00000186,-0.000001
 34,0.00000132,-0.00000064,0.00000061,-0.00000031,0.00000167,0.00000031
 ,-0.00000167,0.00000078,0.00000137,-0.00000047,0.00000206,0.00000042,-
 0.00000260,-0.00000041,-0.00000145,-0.00000174,0.00000302,0.00000137,-
 0.00000318,0.00000856,0.00001716,0.00000409,0.00000291,0.00000093,-0.0
 0000513,-0.00002780,-0.00005478,-0.00001769,0.00000749,0.00002273,-0.0
 0000507,0.00002948,0.00010942,0.00006516,-0.00009945,-0.00018289,-0.00
 015954,-0.00291818,-0.00488198,-0.00190195,-0.00408369,0.00378718,0.00
 159737,-0.11731221,0.07337247,-0.00000326,0.00000205,0.00000003,0.0000
 0170,-0.00000453,0.00000147,-0.00000122,0.00000411,-0.00000154,0.00000
 076,-0.00000458,0.00000249,-0.00000046,0.00000370,-0.00000188,0.000000
 22,-0.00000622,0.00000193,-0.00000078,0.00000348,-0.00000082,0.0000046
 0,0.00000427,-0.00000337,-0.00000349,-0.00000182,0.00000154,0.00000086
 ,-0.00000664,0.00000481,-0.00000152,0.00000414,-0.00000219,0.00000469,
 0.00000336,-0.00000780,-0.00000391,-0.00000122,0.00000355,0.00000194,-
 0.00000538,0.00000984,-0.00000266,0.00000292,-0.00000335,0.00000153,0.
 00000203,-0.00001152,-0.00000133,-0.00000289,0.00001163,0.00000040,0.0
 0000910,-0.00001529,0.00000086,-0.00000777,0.00001798,-0.00001548,-0.0
 0000383,-0.00003208,0.00000409,-0.00001068,0.00003537,0.00001031,0.000
 10864,-0.00004142,-0.00004952,-0.00003184,0.00009930,-0.00031611,-0.00
 016369,-0.00047151,-0.00087720,0.00019828,0.00093299,0.00037164,0.0043
 9497,-0.00242923,-0.02207752,0.00947256,0.00825095,0.06177540,-0.01772
 258,-0.06948658,0.00000013,-0.00000007,-0.00000001,-0.00000006,0.00000
 071,-0.00000031,0.00000003,0.00000011,0.00000002,-0.00000019,0.0000008
 6,-0.00000037,0.00000006,0.00000011,-0.00000030,-0.00000062,0.00000117
 ,-0.00000036,0.00000048,-0.00000023,0.00000040,-0.00000136,-0.00000009
 ,0.00000067,0.00000042,-0.00000027,-0.00000043,-0.00000109,0.00000117,
 -0.00000058,0.00000057,-0.00000022,0.00000036,-0.00000173,0.00000019,0
 .00000108,0.00000077,-0.00000017,-0.00000028,-0.00000157,0.00000137,-0
 .00000089,0.00000070,-0.00000046,0.00000025,-0.00000142,0.00000022,0.0
 0000162,0.,0.,0.00000075,-0.00000191,0.00000031,0.00000263,-0.00000045
 ,-0.00000079,0.00000088,-0.00000285,0.00000074,0.00000380,0.00000279,0
 .00000496,0.00000328,-0.00000447,0.00000041,0.00000614,-0.00000746,-0.
 00001824,-0.00000699,-0.00000435,0.00000493,0.00001611,0.00009375,-0.0
 0000169,0.00000952,-0.00043912,0.00005229,0.00021495,-0.00086205,-0.00
 204075,0.00062608,0.02364455,-0.01016626,-0.00197890,-0.06123748,0.015
 91975,0.06423535,-0.26306532,0.13023029,0.00972640,-0.01756353,0.01610
 550,-0.00092682,-0.00064188,-0.00233380,0.00484942,-0.00070070,0.00105
 312,-0.00020487,-0.00023948,-0.00044849,-0.00015378,-0.00014831,0.0000
 5601,0.00000710,0.00006105,0.00001627,0.00004916,-0.00002094,0.0000449
 6,-0.00003223,0.00001892,-0.00004320,0.00002063,-0.00002479,-0.0000060
 5,0.00002910,0.00002146,0.00000502,-0.00003302,-0.00001092,0.00001229,
 -0.00001971,0.00001005,-0.00001275,0.00002800,-0.00000788,-0.00000047,
 0.00001683,0.00000855,0.00000150,-0.00002748,-0.00000527,-0.00000214,0
 .00001237,0.00000748,0.00000358,-0.00001706,-0.00000543,-0.00000132,0.
 00001246,0.00000648,0.00000147,-0.00001571,-0.00000557,-0.00000097,0.0
 0001116,0.00000659,0.00000131,-0.00001381,-0.00000567,-0.00000055,0.00
 001012,0.00000657,0.00000077,-0.00001239,-0.00000591,-0.00000015,0.000
 00926,0.00000673,0.00000030,-0.00001108,-0.00000699,0.00000059,0.00000
 863,0.00000824,-0.00000097,-0.00000943,-0.00000867,0.00000361,0.000001
 81,0.00322693,-0.00241384,0.00085883,0.00044380,-0.00098514,-0.0017947
 5,0.00014352,0.00002631,-0.00014418,0.00001140,-0.00004712,0.00006157,
 0.00001672,0.00001029,-0.00000591,-0.00000122,-0.00001220,-0.00001817,
 -0.00002877,0.00000374,0.00000694,0.00000542,-0.00000257,0.00001036,-0
 .00000633,0.00000771,-0.00000297,0.00000391,0.00000324,-0.00000078,-0.
 00000643,0.00000026,0.00000413,0.00000049,-0.00000279,0.00000088,-0.00
 000382,0.00000360,-0.00000278,0.00000230,0.00000101,-0.00000094,-0.000
 00382,0.00000055,0.00000400,-0.00000054,-0.00000083,0.00000129,-0.0000
 0214,-0.00000017,0.00000347,-0.00000026,0.00000005,0.00000110,-0.00000
 175,-0.00000006,0.00000297,-0.00000027,-0.00000008,0.00000079,-0.00000
 149,-0.00000007,0.00000257,-0.00000020,-0.00000005,0.00000058,-0.00000
 128,-0.00000008,0.00000224,-0.00000013,-0.00000004,0.00000041,-0.00000
 109,-0.00000008,0.00000196,-0.00000009,0.,0.00000022,-0.00000077,-0.00
 000017,0.00000172,0.00000033,-0.00000013,-0.00000002,-0.00000120,0.000
 00080,-0.00000059,0.27851188,0.13416065,-0.13405139,0.00740770,-0.0126
 1756,0.00978705,0.00123003,-0.00050186,0.00097258,0.00515718,-0.000244
 70,0.00073789,-0.00016472,-0.00039699,-0.00035249,-0.00037850,0.000036
 38,0.00004732,-0.00005195,-0.00000938,0.00006919,0.00008448,0.00000798
 ,-0.00003409,0.00000935,-0.00001995,-0.00000544,0.00000324,0.00001466,
 0.00000157,-0.00000466,-0.00000970,0.00000637,-0.00000909,0.00000411,-
 0.00000735,0.00000495,-0.00000544,0.00000224,0.00000575,0.00000433,-0.
 00000014,-0.00000334,-0.00000360,0.00000205,-0.00000273,0.00000195,-0.
 00000208,0.00000297,-0.00000189,0.00000164,-0.00000185,0.00000114,-0.0
 0000120,0.00000197,-0.00000118,0.00000094,-0.00000127,0.00000061,-0.00
 000074,0.00000128,-0.00000069,0.00000058,-0.00000079,0.00000032,-0.000
 00043,0.00000079,-0.00000040,0.00000032,-0.00000045,0.00000014,-0.0000
 0024,0.00000045,-0.00000023,0.00000016,-0.00000021,0.00000006,-0.00000
 012,0.00000022,-0.00000014,0.00000007,-0.00000005,0.,-0.00000007,0.000
 00009,0.02189816,-0.00917551,-0.00129738,-0.00069871,-0.00011972,-0.00
 299487,-0.00041048,0.00027478,-0.00013840,0.00008910,0.00001679,0.0000
 3059,-0.00000402,0.00000844,0.00000500,-0.00000821,-0.00001745,-0.0000
 2884,-0.00001188,0.00000467,0.00000016,0.00000676,0.00000813,0.0000075
 9,-0.00000338,0.00000201,-0.00000080,0.00000218,0.00000203,0.00000080,
 -0.00000038,0.00000069,0.00000023,0.00000048,-0.00000032,-0.00000078,-
 0.00000085,0.00000035,-0.00000028,0.00000031,0.00000014,-0.00000003,-0
 .00000015,0.00000015,0.00000004,0.00000005,0.,-0.00000023,0.,0.0000000
 4,-0.00000001,0.00000006,0.00000005,-0.00000018,0.,0.00000003,-0.00000
 002,0.00000004,0.00000004,-0.00000013,0.00000001,0.00000002,-0.0000000
 2,0.00000003,0.00000004,-0.00000009,0.00000002,0.00000002,-0.00000002,
 0.00000002,0.00000003,-0.00000007,0.00000002,0.00000002,-0.00000003,0.
 00000002,0.00000002,-0.00000005,0.00000001,0.00000002,-0.00000003,0.,0
 .00000002,-0.00000002,0.00000003,0.,-0.00000001,-0.14127784,0.13182027
 ,0.00786663,0.00861300,-0.03758486,0.01264459,-0.00758725,0.00388822,0
 .00395864,0.00570648,0.00766376,0.00044541,-0.00055458,0.00035061,-0.0
 0019323,-0.00035031,-0.00119165,0.00001417,-0.00004981,-0.00002162,0.0
 0006019,0.00006827,0.00021021,-0.00000439,0.00000142,-0.00000776,0.000
 00551,-0.00000294,-0.00004069,0.00000078,-0.00000412,0.00000111,-0.000
 00411,-0.00000945,0.00001170,0.00000081,-0.00000156,0.00000376,-0.0000
 0031,0.00000469,-0.00001168,0.00000090,-0.00000060,-0.00000379,-0.0000
 0182,-0.00000190,0.00001056,0.00000092,0.00000144,-0.00000553,-0.00000
 185,-0.00000216,0.00000679,0.00000123,0.00000077,-0.00000499,-0.000001
 75,-0.00000105,0.00000591,0.00000149,0.00000050,-0.00000420,-0.0000019
 7,-0.00000079,0.00000500,0.00000166,0.00000026,-0.00000363,-0.00000207
 ,-0.00000047,0.00000435,0.00000183,0.00000007,-0.00000321,-0.00000219,
 -0.00000023,0.00000381,0.00000225,-0.00000021,-0.00000291,-0.00000272,
 0.00000026,0.00000319,0.00000280,-0.00000128,-0.00000063,-0.01061433,0
 .00616166,0.00266248,-0.00192834,-0.00290259,-0.00495713,0.00006177,-0
 .00027308,-0.00017669,-0.00000744,0.00007372,0.00010738,0.00000655,-0.
 00000552,0.00001720,-0.00002189,-0.00002910,-0.00006030,-0.00000228,-0
 .00000229,-0.00000469,0.00000752,0.00001626,0.00001993,0.00000308,-0.0
 0000121,0.00000219,0.00000186,0.00000449,0.00000345,0.00000282,0.,-0.0
 0000139,-0.00000019,0.00000104,-0.00000008,0.00000167,-0.00000089,0.00
 000107,-0.00000073,0.00000039,0.00000022,0.00000173,-0.00000009,-0.000
 00152,0.00000033,0.00000059,-0.00000043,0.00000094,0.00000019,-0.00000
 129,0.00000018,0.00000016,-0.00000038,0.00000074,0.00000013,-0.0000010
 8,0.00000016,0.00000016,-0.00000028,0.00000060,0.00000011,-0.00000092,
 0.00000012,0.00000011,-0.00000022,0.00000050,0.00000009,-0.00000079,0.
 00000009,0.00000009,-0.00000016,0.00000042,0.00000008,-0.00000069,0.00
 000007,0.00000006,-0.00000010,0.00000029,0.00000010,-0.00000060,-0.000
 00007,0.00000009,0.,0.00000043,-0.00000023,0.00000021,-0.01231002,-0.0
 0887298,0.02911279\\0.00000040,0.00000031,-0.00000016,0.00000006,0.000
 00004,0.00000002,-0.00000016,-0.00000005,0.00000021,0.,-0.00000008,-0.
 00000008,-0.00000063,-0.00000009,0.00000038,0.00000036,-0.00000002,-0.
 00000052,-0.00000033,0.00000132,-0.00000028,-0.00000019,-0.00000097,-0
 .00000002,-0.00000013,-0.00000050,0.00000070,0.00000087,-0.00000006,-0
 .00000092,-0.00000008,0.00000002,0.00000017,0.00000056,0.00000031,0.00
 000026,-0.00000049,-0.00000033,-0.00000077,-0.00000087,0.00000014,0.00
 000071,0.00000062,-0.00000086,0.00000005,-0.00000077,0.00000042,-0.000
 00012,0.00000069,-0.00000062,-0.00000005,-0.00000079,0.00000042,-0.000
 00011,0.00000065,-0.00000043,-0.00000007,-0.00000069,0.00000028,0.,0.0
 0000058,-0.00000030,-0.00000010,-0.00000043,0.00000016,0.00000012,0.00
 000046,-0.00000026,-0.00000010,-0.00000015,0.00000002,0.00000012,0.000
 00034,-0.00000019,0.00000001,-0.00000012,0.00000006,0.00000002,0.00000
 017,-0.00000010,-0.00000002,-0.00000023,0.00000025,-0.00000037,-0.0000
 0004,0.00000012,0.00000021,-0.00000001,0.00000009,0.00000013,0.0000001
 3,0.00000018,0.00000005,-0.00000003,0.00000018,0.00000004,0.00000013,0
 .00000016,0.00000028,-0.00000010,0.00000010,0.00000002,0.00000031,0.00
 000002,0.00000032,-0.00000018,-0.00000009,-0.00000002,0.00000032,0.000
 00017,0.00000033,-0.00000024,-0.00000006,0.00000006,-0.00000017,-0.000
 00021,-0.00000049,0.00000006,-0.00000018,0.00000012,-0.00000012,-0.000
 00018,0.00000002,0.00000031,0.00000048,-0.00000025,-0.00000012,0.00000
 009,-0.00000008,0.00000002,0.00000046,0.00000024,0.,-0.00000010,-0.000
 00010,-0.00000007,-0.00000002,0.00000013,0.00000001,-0.00000006,-0.000
 00015,-0.00000007,0.,0.00000013,0.00000005,-0.00000006,-0.00000018,-0.
 00000009,0.00000004,0.00000009,0.00000007,-0.00000007,-0.00000016,-0.0
 0000008,0.00000007,0.00000002,0.00000007,-0.00000008,-0.00000010,-0.00
 000006,0.00000008,-0.00000004,0.00000008,-0.00000010,-0.00000001,0.000
 00010,-0.00000001,0.00000005,0.00000001,-0.00000003,0.00000007,0.00000
 003,0.00000007,0.00000016\\\@


 TO DRY ONE'S EYES AND LAUGH AT A FALL
 AND BAFFLED, GET UP AND BEGIN AGAIN.
           R. BROWNING
 Job cpu time:       0 days  2 hours 19 minutes  1.7 seconds.
 Elapsed time:       0 days  2 hours 19 minutes  1.7 seconds.
 File lengths (MBytes):  RWF=   1927 Int=      0 D2E=      0 Chk=     28 Scr=      1
 Normal termination of Gaussian 16 at Sun Oct 29 01:24:01 2023.
