 Entering Gaussian System, Link 0=g16
 Input=./com/15.com
 Output=./log/15.log
 Initial command:
 /home/shohei/gaussian/g16/l1.exe "/home/shohei/gaussian/scratch/Gau-26532.inp" -scrdir="/home/shohei/gaussian/scratch/"
 Entering Link 1 = /home/shohei/gaussian/g16/l1.exe PID=     26534.
  
 Copyright (c) 1988-2017, Gaussian, Inc.  All Rights Reserved.
  
 This is part of the Gaussian(R) 16 program.  It is based on
 the Gaussian(R) 09 system (copyright 2009, Gaussian, Inc.),
 the Gaussian(R) 03 system (copyright 2003, Gaussian, Inc.),
 the Gaussian(R) 98 system (copyright 1998, Gaussian, Inc.),
 the Gaussian(R) 94 system (copyright 1995, Gaussian, Inc.),
 the Gaussian 92(TM) system (copyright 1992, Gaussian, Inc.),
 the Gaussian 90(TM) system (copyright 1990, Gaussian, Inc.),
 the Gaussian 88(TM) system (copyright 1988, Gaussian, Inc.),
 the Gaussian 86(TM) system (copyright 1986, Carnegie Mellon
 University), and the Gaussian 82(TM) system (copyright 1983,
 Carnegie Mellon University). Gaussian is a federally registered
 trademark of Gaussian, Inc.
  
 This software contains proprietary and confidential information,
 including trade secrets, belonging to Gaussian, Inc.
  
 This software is provided under written license and may be
 used, copied, transmitted, or stored only in accord with that
 written license.
  
 The following legend is applicable only to US Government
 contracts under FAR:
  
                    RESTRICTED RIGHTS LEGEND
  
 Use, reproduction and disclosure by the US Government is
 subject to restrictions as set forth in subparagraphs (a)
 and (c) of the Commercial Computer Software - Restricted
 Rights clause in FAR 52.227-19.
  
 Gaussian, Inc.
 340 Quinnipiac St., Bldg. 40, Wallingford CT 06492
  
  
 ---------------------------------------------------------------
 Warning -- This program may not be used in any manner that
 competes with the business of Gaussian, Inc. or will provide
 assistance to any competitor of Gaussian, Inc.  The licensee
 of this program is prohibited from giving any competitor of
 Gaussian, Inc. access to this program.  By using this program,
 the user acknowledges that Gaussian, Inc. is engaged in the
 business of creating and licensing software in the field of
 computational chemistry and represents and warrants to the
 licensee that it is not a competitor of Gaussian, Inc. and that
 it will not use this program in any manner prohibited above.
 ---------------------------------------------------------------
  

 Cite this work as:
 Gaussian 16, Revision B.01,
 M. J. Frisch, G. W. Trucks, H. B. Schlegel, G. E. Scuseria, 
 M. A. Robb, J. R. Cheeseman, G. Scalmani, V. Barone, 
 G. A. Petersson, H. Nakatsuji, X. Li, M. Caricato, A. V. Marenich, 
 J. Bloino, B. G. Janesko, R. Gomperts, B. Mennucci, H. P. Hratchian, 
 J. V. Ortiz, A. F. Izmaylov, J. L. Sonnenberg, D. Williams-Young, 
 F. Ding, F. Lipparini, F. Egidi, J. Goings, B. Peng, A. Petrone, 
 T. Henderson, D. Ranasinghe, V. G. Zakrzewski, J. Gao, N. Rega, 
 G. Zheng, W. Liang, M. Hada, M. Ehara, K. Toyota, R. Fukuda, 
 J. Hasegawa, M. Ishida, T. Nakajima, Y. Honda, O. Kitao, H. Nakai, 
 T. Vreven, K. Throssell, J. A. Montgomery, Jr., J. E. Peralta, 
 F. Ogliaro, M. J. Bearpark, J. J. Heyd, E. N. Brothers, K. N. Kudin, 
 V. N. Staroverov, T. A. Keith, R. Kobayashi, J. Normand, 
 K. Raghavachari, A. P. Rendell, J. C. Burant, S. S. Iyengar, 
 J. Tomasi, M. Cossi, J. M. Millam, M. Klene, C. Adamo, R. Cammi, 
 J. W. Ochterski, R. L. Martin, K. Morokuma, O. Farkas, 
 J. B. Foresman, and D. J. Fox, Gaussian, Inc., Wallingford CT, 2016.
 
 ******************************************
 Gaussian 16:  EM64L-G16RevB.01 20-Dec-2017
                29-Oct-2023 
 ******************************************
 %chk=./chk/15.chk
 ---------------------------
 # B3LYP/6-31G(d,p) OPT FREQ
 ---------------------------
 1/18=20,19=15,26=3,38=1/1,3;
 2/9=110,12=2,17=6,18=5,40=1/2;
 3/5=1,6=6,7=101,11=2,25=1,30=1,71=1,74=-5/1,2,3;
 4//1;
 5/5=2,38=5/2;
 6/7=2,8=2,9=2,10=2,28=1/1;
 7//1,2,3,16;
 1/18=20,19=15,26=3/3(2);
 2/9=110/2;
 99//99;
 2/9=110/2;
 3/5=1,6=6,7=101,11=2,25=1,30=1,71=1,74=-5/1,2,3;
 4/5=5,16=3,69=1/1;
 5/5=2,38=5/2;
 7//1,2,3,16;
 1/18=20,19=15,26=3/3(-5);
 2/9=110/2;
 6/7=2,8=2,9=2,10=2,19=2,28=1/1;
 99/9=1/99;
 ------
 15poly
 ------
 Symbolic Z-matrix:
 Charge =  0 Multiplicity = 1
 C                    -4.4739    1.13102   1.30437 
 C                    -3.49773   1.39116   0.43181 
 C                    -2.1725    0.74922   0.55328 
 C                    -1.19874   1.01276  -0.32774 
 C                     0.12841   0.3721   -0.213 
 C                     1.09481   0.63535  -1.10251 
 C                     2.42565  -0.00219  -1.00197 
 C                     3.37633   0.26846  -1.91335 
 C                     4.74684  -0.30827  -1.92872 
 C                     5.23272  -1.1779   -1.01714 
 C                     6.60614  -1.7571   -1.04068 
 C                     7.53409  -1.49795  -1.98625 
 C                     8.90597  -2.07217  -2.02582 
 C                     9.42372  -2.92316  -1.11409 
 C                     10.80092  -3.49187  -1.16936 
 C                     11.698   -3.24179  -2.14656 
 C                     13.07233  -3.80448  -2.21046 
 C                     13.62381  -4.62984  -1.30326 
 C                     15.00852  -5.11479  -1.49035 
 C                     15.59309  -5.92815  -0.60045 
 C                     16.97988  -6.39473  -0.81075 
 C                     17.58764  -7.19822   0.07215 
 C                     18.97661  -7.64984  -0.15546 
 C                     19.60255  -8.4443    0.72283 
 C                     20.99308  -8.88462   0.48312 
 C                     21.63152  -9.67194   1.35881 
 C                     23.02298  -10.10507   1.11191 
 C                     23.66844  -10.8878   1.9865 
 C                     25.05979  -11.31712   1.73596 
 C                     25.70943  -12.09519   2.60468 
 H                    -4.32182   0.44023   2.1284 
 H                    -3.6898    2.08827  -0.37958 
 H                    -1.99042   0.0537    1.36939 
 H                    -1.38398   1.70791  -1.14368 
 H                     0.3174   -0.32195   0.60272 
 H                     0.89953   1.3288   -1.91761 
 H                     2.60738  -0.68843  -0.18368 
 H                     3.14322   0.96169  -2.71751 
 H                     5.36348   0.02384  -2.75208 
 H                     4.61078  -1.50343  -0.19356 
 H                     6.83393  -2.43182  -0.22607 
 H                     7.3071   -0.82768  -2.80354 
 H                     9.49849  -1.75207  -2.87133 
 H                     8.83001  -3.23895  -0.2665 
 H                     11.06177  -4.14985  -0.35046 
 H                     11.4438  -2.58911  -2.96983 
 H                     13.66551  -3.50855  -3.07191 
 H                     13.07636  -4.95243  -0.42577 
 H                     15.56314  -4.79939  -2.37144 
 H                     15.04805  -6.24704   0.28484 
 H                     17.51536  -6.07395  -1.70164 
 H                     17.05899  -7.52062   0.96612 
 H                     19.4976  -7.32624  -1.05384 
 H                     19.08662  -8.76873   1.62352 
 H                     21.50374  -8.5597   -0.42067 
 H                     21.12409  -9.99715   2.26409 
 H                     23.52759  -9.77992   0.2048 
 H                     23.16618  -11.21341   2.89458 
 H                     25.57081  -10.99822   0.83137 
 H                     25.23378  -12.43462   3.52005 
 H                     26.7313  -12.39885   2.40129 
 H                    -5.44005   1.61339   1.19626 
 

 GradGradGradGradGradGradGradGradGradGradGradGradGradGradGradGradGradGrad
 Berny optimization.
 Initialization pass.
                           ----------------------------
                           !    Initial Parameters    !
                           ! (Angstroms and Degrees)  !
 --------------------------                            --------------------------
 ! Name  Definition              Value          Derivative Info.                !
 --------------------------------------------------------------------------------
 ! R1    R(1,2)                  1.3349         estimate D2E/DX2                !
 ! R2    R(1,31)                 1.086          estimate D2E/DX2                !
 ! R3    R(1,62)                 1.0853         estimate D2E/DX2                !
 ! R4    R(2,3)                  1.4775         estimate D2E/DX2                !
 ! R5    R(2,32)                 1.0868         estimate D2E/DX2                !
 ! R6    R(3,4)                  1.3393         estimate D2E/DX2                !
 ! R7    R(3,33)                 1.0876         estimate D2E/DX2                !
 ! R8    R(4,5)                  1.4782         estimate D2E/DX2                !
 ! R9    R(4,34)                 1.0878         estimate D2E/DX2                !
 ! R10   R(5,6)                  1.3396         estimate D2E/DX2                !
 ! R11   R(5,35)                 1.0876         estimate D2E/DX2                !
 ! R12   R(6,7)                  1.4791         estimate D2E/DX2                !
 ! R13   R(6,36)                 1.0878         estimate D2E/DX2                !
 ! R14   R(7,8)                  1.3445         estimate D2E/DX2                !
 ! R15   R(7,37)                 1.0833         estimate D2E/DX2                !
 ! R16   R(8,9)                  1.487          estimate D2E/DX2                !
 ! R17   R(8,38)                 1.087          estimate D2E/DX2                !
 ! R18   R(9,10)                 1.3503         estimate D2E/DX2                !
 ! R19   R(9,39)                 1.081          estimate D2E/DX2                !
 ! R20   R(10,11)                1.4907         estimate D2E/DX2                !
 ! R21   R(10,40)                1.0822         estimate D2E/DX2                !
 ! R22   R(11,12)                1.3499         estimate D2E/DX2                !
 ! R23   R(11,41)                1.082          estimate D2E/DX2                !
 ! R24   R(12,13)                1.4877         estimate D2E/DX2                !
 ! R25   R(12,42)                1.0811         estimate D2E/DX2                !
 ! R26   R(13,14)                1.3504         estimate D2E/DX2                !
 ! R27   R(13,43)                1.0809         estimate D2E/DX2                !
 ! R28   R(14,15)                1.491          estimate D2E/DX2                !
 ! R29   R(14,44)                1.0819         estimate D2E/DX2                !
 ! R30   R(15,16)                1.3499         estimate D2E/DX2                !
 ! R31   R(15,45)                1.0824         estimate D2E/DX2                !
 ! R32   R(16,17)                1.4864         estimate D2E/DX2                !
 ! R33   R(16,46)                1.0809         estimate D2E/DX2                !
 ! R34   R(17,18)                1.3448         estimate D2E/DX2                !
 ! R35   R(17,47)                1.087          estimate D2E/DX2                !
 ! R36   R(18,19)                1.479          estimate D2E/DX2                !
 ! R37   R(18,48)                1.0834         estimate D2E/DX2                !
 ! R38   R(19,20)                1.3399         estimate D2E/DX2                !
 ! R39   R(19,49)                1.0878         estimate D2E/DX2                !
 ! R40   R(20,21)                1.4782         estimate D2E/DX2                !
 ! R41   R(20,50)                1.0874         estimate D2E/DX2                !
 ! R42   R(21,22)                1.3396         estimate D2E/DX2                !
 ! R43   R(21,51)                1.0878         estimate D2E/DX2                !
 ! R44   R(22,23)                1.4782         estimate D2E/DX2                !
 ! R45   R(22,52)                1.0875         estimate D2E/DX2                !
 ! R46   R(23,24)                1.3395         estimate D2E/DX2                !
 ! R47   R(23,53)                1.0878         estimate D2E/DX2                !
 ! R48   R(24,25)                1.4781         estimate D2E/DX2                !
 ! R49   R(24,54)                1.0875         estimate D2E/DX2                !
 ! R50   R(25,26)                1.3395         estimate D2E/DX2                !
 ! R51   R(25,55)                1.0877         estimate D2E/DX2                !
 ! R52   R(26,27)                1.4781         estimate D2E/DX2                !
 ! R53   R(26,56)                1.0876         estimate D2E/DX2                !
 ! R54   R(27,28)                1.3395         estimate D2E/DX2                !
 ! R55   R(27,57)                1.0877         estimate D2E/DX2                !
 ! R56   R(28,29)                1.4775         estimate D2E/DX2                !
 ! R57   R(28,58)                1.0876         estimate D2E/DX2                !
 ! R58   R(29,30)                1.335          estimate D2E/DX2                !
 ! R59   R(29,59)                1.0868         estimate D2E/DX2                !
 ! R60   R(30,60)                1.086          estimate D2E/DX2                !
 ! R61   R(30,61)                1.0853         estimate D2E/DX2                !
 ! A1    A(2,1,31)             121.1678         estimate D2E/DX2                !
 ! A2    A(2,1,62)             119.9519         estimate D2E/DX2                !
 ! A3    A(31,1,62)            118.8802         estimate D2E/DX2                !
 ! A4    A(1,2,3)              121.164          estimate D2E/DX2                !
 ! A5    A(1,2,32)             118.9313         estimate D2E/DX2                !
 ! A6    A(3,2,32)             119.9047         estimate D2E/DX2                !
 ! A7    A(2,3,4)              120.8328         estimate D2E/DX2                !
 ! A8    A(2,3,33)             119.3199         estimate D2E/DX2                !
 ! A9    A(4,3,33)             119.8473         estimate D2E/DX2                !
 ! A10   A(3,4,5)              121.0929         estimate D2E/DX2                !
 ! A11   A(3,4,34)             119.6918         estimate D2E/DX2                !
 ! A12   A(5,4,34)             119.2152         estimate D2E/DX2                !
 ! A13   A(4,5,6)              120.7308         estimate D2E/DX2                !
 ! A14   A(4,5,35)             119.3953         estimate D2E/DX2                !
 ! A15   A(6,5,35)             119.8738         estimate D2E/DX2                !
 ! A16   A(5,6,7)              121.2834         estimate D2E/DX2                !
 ! A17   A(5,6,36)             119.5585         estimate D2E/DX2                !
 ! A18   A(7,6,36)             119.1579         estimate D2E/DX2                !
 ! A19   A(6,7,8)              120.2237         estimate D2E/DX2                !
 ! A20   A(6,7,37)             118.3811         estimate D2E/DX2                !
 ! A21   A(8,7,37)             121.3948         estimate D2E/DX2                !
 ! A22   A(7,8,9)              125.4954         estimate D2E/DX2                !
 ! A23   A(7,8,38)             118.5696         estimate D2E/DX2                !
 ! A24   A(9,8,38)             115.9345         estimate D2E/DX2                !
 ! A25   A(8,9,10)             125.0611         estimate D2E/DX2                !
 ! A26   A(8,9,39)             114.4876         estimate D2E/DX2                !
 ! A27   A(10,9,39)            120.4513         estimate D2E/DX2                !
 ! A28   A(9,10,11)            124.8256         estimate D2E/DX2                !
 ! A29   A(9,10,40)            120.0472         estimate D2E/DX2                !
 ! A30   A(11,10,40)           115.1272         estimate D2E/DX2                !
 ! A31   A(10,11,12)           124.7344         estimate D2E/DX2                !
 ! A32   A(10,11,41)           115.1096         estimate D2E/DX2                !
 ! A33   A(12,11,41)           120.1555         estimate D2E/DX2                !
 ! A34   A(11,12,13)           125.3386         estimate D2E/DX2                !
 ! A35   A(11,12,42)           120.2799         estimate D2E/DX2                !
 ! A36   A(13,12,42)           114.3811         estimate D2E/DX2                !
 ! A37   A(12,13,14)           125.3685         estimate D2E/DX2                !
 ! A38   A(12,13,43)           114.3292         estimate D2E/DX2                !
 ! A39   A(14,13,43)           120.3022         estimate D2E/DX2                !
 ! A40   A(13,14,15)           124.7143         estimate D2E/DX2                !
 ! A41   A(13,14,44)           120.1626         estimate D2E/DX2                !
 ! A42   A(15,14,44)           115.123          estimate D2E/DX2                !
 ! A43   A(14,15,16)           124.7502         estimate D2E/DX2                !
 ! A44   A(14,15,45)           115.2404         estimate D2E/DX2                !
 ! A45   A(16,15,45)           120.0093         estimate D2E/DX2                !
 ! A46   A(15,16,17)           125.1297         estimate D2E/DX2                !
 ! A47   A(15,16,46)           120.4593         estimate D2E/DX2                !
 ! A48   A(17,16,46)           114.4108         estimate D2E/DX2                !
 ! A49   A(16,17,18)           125.6272         estimate D2E/DX2                !
 ! A50   A(16,17,47)           115.8214         estimate D2E/DX2                !
 ! A51   A(18,17,47)           118.5512         estimate D2E/DX2                !
 ! A52   A(17,18,19)           119.9898         estimate D2E/DX2                !
 ! A53   A(17,18,48)           121.4615         estimate D2E/DX2                !
 ! A54   A(19,18,48)           118.5485         estimate D2E/DX2                !
 ! A55   A(18,19,20)           121.567          estimate D2E/DX2                !
 ! A56   A(18,19,49)           118.9931         estimate D2E/DX2                !
 ! A57   A(20,19,49)           119.4398         estimate D2E/DX2                !
 ! A58   A(19,20,21)           120.4264         estimate D2E/DX2                !
 ! A59   A(19,20,50)           120.0033         estimate D2E/DX2                !
 ! A60   A(21,20,50)           119.5701         estimate D2E/DX2                !
 ! A61   A(20,21,22)           121.4118         estimate D2E/DX2                !
 ! A62   A(20,21,51)           119.0289         estimate D2E/DX2                !
 ! A63   A(22,21,51)           119.559          estimate D2E/DX2                !
 ! A64   A(21,22,23)           120.536          estimate D2E/DX2                !
 ! A65   A(21,22,52)           119.9392         estimate D2E/DX2                !
 ! A66   A(23,22,52)           119.5246         estimate D2E/DX2                !
 ! A67   A(22,23,24)           121.2868         estimate D2E/DX2                !
 ! A68   A(22,23,53)           119.0999         estimate D2E/DX2                !
 ! A69   A(24,23,53)           119.6132         estimate D2E/DX2                !
 ! A70   A(23,24,25)           120.659          estimate D2E/DX2                !
 ! A71   A(23,24,54)           119.8861         estimate D2E/DX2                !
 ! A72   A(25,24,54)           119.4547         estimate D2E/DX2                !
 ! A73   A(24,25,26)           121.1609         estimate D2E/DX2                !
 ! A74   A(24,25,55)           119.1702         estimate D2E/DX2                !
 ! A75   A(26,25,55)           119.6688         estimate D2E/DX2                !
 ! A76   A(25,26,27)           120.7786         estimate D2E/DX2                !
 ! A77   A(25,26,56)           119.8376         estimate D2E/DX2                !
 ! A78   A(27,26,56)           119.3837         estimate D2E/DX2                !
 ! A79   A(26,27,28)           121.0512         estimate D2E/DX2                !
 ! A80   A(26,27,57)           119.2373         estimate D2E/DX2                !
 ! A81   A(28,27,57)           119.7114         estimate D2E/DX2                !
 ! A82   A(27,28,29)           120.8551         estimate D2E/DX2                !
 ! A83   A(27,28,58)           119.8393         estimate D2E/DX2                !
 ! A84   A(29,28,58)           119.3056         estimate D2E/DX2                !
 ! A85   A(28,29,30)           121.1505         estimate D2E/DX2                !
 ! A86   A(28,29,59)           119.9121         estimate D2E/DX2                !
 ! A87   A(30,29,59)           118.9374         estimate D2E/DX2                !
 ! A88   A(29,30,60)           121.1674         estimate D2E/DX2                !
 ! A89   A(29,30,61)           119.9563         estimate D2E/DX2                !
 ! A90   A(60,30,61)           118.8763         estimate D2E/DX2                !
 ! D1    D(31,1,2,3)             0.0043         estimate D2E/DX2                !
 ! D2    D(31,1,2,32)          179.9715         estimate D2E/DX2                !
 ! D3    D(62,1,2,3)          -179.976          estimate D2E/DX2                !
 ! D4    D(62,1,2,32)           -0.0088         estimate D2E/DX2                !
 ! D5    D(1,2,3,4)            179.8478         estimate D2E/DX2                !
 ! D6    D(1,2,3,33)            -0.08           estimate D2E/DX2                !
 ! D7    D(32,2,3,4)            -0.119          estimate D2E/DX2                !
 ! D8    D(32,2,3,33)          179.9532         estimate D2E/DX2                !
 ! D9    D(2,3,4,5)           -179.8957         estimate D2E/DX2                !
 ! D10   D(2,3,4,34)             0.0004         estimate D2E/DX2                !
 ! D11   D(33,3,4,5)             0.0317         estimate D2E/DX2                !
 ! D12   D(33,3,4,34)          179.9278         estimate D2E/DX2                !
 ! D13   D(3,4,5,6)            179.6315         estimate D2E/DX2                !
 ! D14   D(3,4,5,35)            -0.2175         estimate D2E/DX2                !
 ! D15   D(34,4,5,6)            -0.2651         estimate D2E/DX2                !
 ! D16   D(34,4,5,35)          179.8859         estimate D2E/DX2                !
 ! D17   D(4,5,6,7)           -179.7943         estimate D2E/DX2                !
 ! D18   D(4,5,6,36)             0.0244         estimate D2E/DX2                !
 ! D19   D(35,5,6,7)             0.0539         estimate D2E/DX2                !
 ! D20   D(35,5,6,36)          179.8727         estimate D2E/DX2                !
 ! D21   D(5,6,7,8)            179.4129         estimate D2E/DX2                !
 ! D22   D(5,6,7,37)            -0.3571         estimate D2E/DX2                !
 ! D23   D(36,6,7,8)            -0.4066         estimate D2E/DX2                !
 ! D24   D(36,6,7,37)          179.8234         estimate D2E/DX2                !
 ! D25   D(6,7,8,9)           -179.7116         estimate D2E/DX2                !
 ! D26   D(6,7,8,38)             0.032          estimate D2E/DX2                !
 ! D27   D(37,7,8,9)             0.0513         estimate D2E/DX2                !
 ! D28   D(37,7,8,38)          179.7949         estimate D2E/DX2                !
 ! D29   D(7,8,9,10)            -0.6961         estimate D2E/DX2                !
 ! D30   D(7,8,9,39)           179.2772         estimate D2E/DX2                !
 ! D31   D(38,8,9,10)          179.5543         estimate D2E/DX2                !
 ! D32   D(38,8,9,39)           -0.4724         estimate D2E/DX2                !
 ! D33   D(8,9,10,11)          179.7444         estimate D2E/DX2                !
 ! D34   D(8,9,10,40)           -0.2367         estimate D2E/DX2                !
 ! D35   D(39,9,10,11)          -0.2274         estimate D2E/DX2                !
 ! D36   D(39,9,10,40)         179.7915         estimate D2E/DX2                !
 ! D37   D(9,10,11,12)          -0.8405         estimate D2E/DX2                !
 ! D38   D(9,10,11,41)         179.4276         estimate D2E/DX2                !
 ! D39   D(40,10,11,12)        179.1414         estimate D2E/DX2                !
 ! D40   D(40,10,11,41)         -0.5905         estimate D2E/DX2                !
 ! D41   D(10,11,12,13)       -179.7482         estimate D2E/DX2                !
 ! D42   D(10,11,12,42)         -0.0022         estimate D2E/DX2                !
 ! D43   D(41,11,12,13)         -0.029          estimate D2E/DX2                !
 ! D44   D(41,11,12,42)        179.7169         estimate D2E/DX2                !
 ! D45   D(11,12,13,14)         -0.7538         estimate D2E/DX2                !
 ! D46   D(11,12,13,43)        179.2949         estimate D2E/DX2                !
 ! D47   D(42,12,13,14)        179.4871         estimate D2E/DX2                !
 ! D48   D(42,12,13,43)         -0.4642         estimate D2E/DX2                !
 ! D49   D(12,13,14,15)        179.8946         estimate D2E/DX2                !
 ! D50   D(12,13,14,44)         -0.1962         estimate D2E/DX2                !
 ! D51   D(43,13,14,15)         -0.1568         estimate D2E/DX2                !
 ! D52   D(43,13,14,44)        179.7524         estimate D2E/DX2                !
 ! D53   D(13,14,15,16)         -0.9053         estimate D2E/DX2                !
 ! D54   D(13,14,15,45)        179.2532         estimate D2E/DX2                !
 ! D55   D(44,14,15,16)        179.1814         estimate D2E/DX2                !
 ! D56   D(44,14,15,45)         -0.66           estimate D2E/DX2                !
 ! D57   D(14,15,16,17)       -179.9655         estimate D2E/DX2                !
 ! D58   D(14,15,16,46)         -0.0868         estimate D2E/DX2                !
 ! D59   D(45,15,16,17)         -0.1312         estimate D2E/DX2                !
 ! D60   D(45,15,16,46)        179.7476         estimate D2E/DX2                !
 ! D61   D(15,16,17,18)         -0.66           estimate D2E/DX2                !
 ! D62   D(15,16,17,47)        179.4716         estimate D2E/DX2                !
 ! D63   D(46,16,17,18)        179.4547         estimate D2E/DX2                !
 ! D64   D(46,16,17,47)         -0.4136         estimate D2E/DX2                !
 ! D65   D(16,17,18,19)       -179.8892         estimate D2E/DX2                !
 ! D66   D(16,17,18,48)         -0.0438         estimate D2E/DX2                !
 ! D67   D(47,17,18,19)         -0.0241         estimate D2E/DX2                !
 ! D68   D(47,17,18,48)        179.8213         estimate D2E/DX2                !
 ! D69   D(17,18,19,20)        179.3935         estimate D2E/DX2                !
 ! D70   D(17,18,19,49)         -0.453          estimate D2E/DX2                !
 ! D71   D(48,18,19,20)         -0.4563         estimate D2E/DX2                !
 ! D72   D(48,18,19,49)        179.6971         estimate D2E/DX2                !
 ! D73   D(18,19,20,21)       -179.8325         estimate D2E/DX2                !
 ! D74   D(18,19,20,50)         -0.0049         estimate D2E/DX2                !
 ! D75   D(49,19,20,21)          0.0134         estimate D2E/DX2                !
 ! D76   D(49,19,20,50)        179.841          estimate D2E/DX2                !
 ! D77   D(19,20,21,22)        179.3833         estimate D2E/DX2                !
 ! D78   D(19,20,21,51)         -0.447          estimate D2E/DX2                !
 ! D79   D(50,20,21,22)         -0.4451         estimate D2E/DX2                !
 ! D80   D(50,20,21,51)        179.7246         estimate D2E/DX2                !
 ! D81   D(20,21,22,23)       -179.8107         estimate D2E/DX2                !
 ! D82   D(20,21,22,52)          0.0157         estimate D2E/DX2                !
 ! D83   D(51,21,22,23)          0.0187         estimate D2E/DX2                !
 ! D84   D(51,21,22,52)        179.8451         estimate D2E/DX2                !
 ! D85   D(21,22,23,24)        179.4421         estimate D2E/DX2                !
 ! D86   D(21,22,23,53)         -0.4032         estimate D2E/DX2                !
 ! D87   D(52,22,23,24)         -0.385          estimate D2E/DX2                !
 ! D88   D(52,22,23,53)        179.7697         estimate D2E/DX2                !
 ! D89   D(22,23,24,25)       -179.8302         estimate D2E/DX2                !
 ! D90   D(22,23,24,54)          0.0237         estimate D2E/DX2                !
 ! D91   D(53,23,24,25)          0.0143         estimate D2E/DX2                !
 ! D92   D(53,23,24,54)        179.8682         estimate D2E/DX2                !
 ! D93   D(23,24,25,26)        179.5642         estimate D2E/DX2                !
 ! D94   D(23,24,25,55)         -0.3201         estimate D2E/DX2                !
 ! D95   D(54,24,25,26)         -0.2904         estimate D2E/DX2                !
 ! D96   D(54,24,25,55)        179.8253         estimate D2E/DX2                !
 ! D97   D(24,25,26,27)       -179.8796         estimate D2E/DX2                !
 ! D98   D(24,25,26,56)          0.021          estimate D2E/DX2                !
 ! D99   D(55,25,26,27)          0.0041         estimate D2E/DX2                !
 ! D100  D(55,25,26,56)        179.9047         estimate D2E/DX2                !
 ! D101  D(25,26,27,28)        179.7227         estimate D2E/DX2                !
 ! D102  D(25,26,27,57)         -0.2122         estimate D2E/DX2                !
 ! D103  D(56,26,27,28)         -0.1783         estimate D2E/DX2                !
 ! D104  D(56,26,27,57)        179.8868         estimate D2E/DX2                !
 ! D105  D(26,27,28,29)       -179.94           estimate D2E/DX2                !
 ! D106  D(26,27,28,58)          0.0112         estimate D2E/DX2                !
 ! D107  D(57,27,28,29)         -0.0054         estimate D2E/DX2                !
 ! D108  D(57,27,28,58)        179.9458         estimate D2E/DX2                !
 ! D109  D(27,28,29,30)        179.8806         estimate D2E/DX2                !
 ! D110  D(27,28,29,59)         -0.0992         estimate D2E/DX2                !
 ! D111  D(58,28,29,30)         -0.0709         estimate D2E/DX2                !
 ! D112  D(58,28,29,59)        179.9494         estimate D2E/DX2                !
 ! D113  D(28,29,30,60)         -0.0009         estimate D2E/DX2                !
 ! D114  D(28,29,30,61)       -179.9861         estimate D2E/DX2                !
 ! D115  D(59,29,30,60)        179.9791         estimate D2E/DX2                !
 ! D116  D(59,29,30,61)         -0.0061         estimate D2E/DX2                !
 --------------------------------------------------------------------------------
 Trust Radius=3.00D-01 FncErr=1.00D-07 GrdErr=1.00D-06 EigMax=2.50D+02 EigMin=1.00D-04
 Number of steps in this run=    277 maximum allowed number of steps=    372.
 GradGradGradGradGradGradGradGradGradGradGradGradGradGradGradGradGradGrad

 Stoichiometry    C30H32
 Framework group  C1[X(C30H32)]
 Deg. of freedom   180
 Full point group                 C1      NOp   1
 Largest Abelian subgroup         C1      NOp   1
 Largest concise Abelian subgroup C1      NOp   1
                         Standard orientation:                         
 ---------------------------------------------------------------------
 Center     Atomic      Atomic             Coordinates (Angstroms)
 Number     Number       Type             X           Y           Z
 ---------------------------------------------------------------------
      1          6           0       16.153026    3.137770   -0.108017
      2          6           0       15.428618    2.018565   -0.040617
      3          6           0       13.951745    2.062221   -0.045612
      4          6           0       13.231437    0.934920    0.019231
      5          6           0       11.753760    0.971762    0.012326
      6          6           0       11.040507   -0.160665    0.070077
      7          6           0        9.561625   -0.138288    0.059394
      8          6           0        8.867003   -1.288481    0.106318
      9          6           0        7.384453   -1.402831    0.095629
     10          6           0        6.526428   -0.361162    0.050422
     11          6           0        5.040685   -0.482090    0.034469
     12          6           0        4.363865   -1.650036    0.046957
     13          6           0        2.882550   -1.786447    0.025998
     14          6           0        2.003432   -0.761621    0.005983
     15          6           0        0.520527   -0.915291   -0.017137
     16          6           0       -0.130255   -2.097765   -0.038507
     17          6           0       -1.607530   -2.260745   -0.062371
     18          6           0       -2.506221   -1.260420   -0.053546
     19          6           0       -3.953107   -1.566240   -0.077544
     20          6           0       -4.875744   -0.594881   -0.057506
     21          6           0       -6.315463   -0.929350   -0.078571
     22          6           0       -7.254572    0.025407   -0.046825
     23          6           0       -8.688989   -0.331166   -0.064507
     24          6           0       -9.640524    0.610722   -0.022116
     25          6           0      -11.070907    0.238313   -0.036751
     26          6           0      -12.030630    1.171410    0.013991
     27          6           0      -13.458428    0.789361    0.001527
     28          6           0      -14.422525    1.717566    0.057608
     29          6           0      -15.848417    1.330724    0.046202
     30          6           0      -16.814008    2.250704    0.104236
     31          1           0       15.677537    4.112253   -0.168371
     32          1           0       15.942250    1.062569    0.018188
     33          1           0       13.447546    3.024152   -0.103986
     34          1           0       13.738334   -0.025866    0.076351
     35          1           0       11.243940    1.930859   -0.042816
     36          1           0       11.555738   -1.117286    0.123009
     37          1           0        9.061500    0.821364    0.009344
     38          1           0        9.415777   -2.225666    0.152385
     39          1           0        7.013093   -2.417499    0.127223
     40          1           0        6.905321    0.652114    0.022365
     41          1           0        4.503862    0.456940    0.006674
     42          1           0        4.898262   -2.589520    0.070108
     43          1           0        2.529336   -2.808047    0.028614
     44          1           0        2.359402    0.260092    0.007449
     45          1           0       -0.039513    0.010955   -0.018671
     46          1           0        0.421801   -3.027071   -0.041242
     47          1           0       -1.970518   -3.285036   -0.086881
     48          1           0       -2.196779   -0.222503   -0.026530
     49          1           0       -4.271841   -2.605844   -0.109740
     50          1           0       -4.567396    0.447333   -0.022708
     51          1           0       -6.614018   -1.974634   -0.117967
     52          1           0       -6.963061    1.072238   -0.004847
     53          1           0       -8.972794   -1.380257   -0.110377
     54          1           0       -9.361789    1.660806    0.025973
     55          1           0      -11.344483   -0.813228   -0.087816
     56          1           0      -11.760197    2.223487    0.066669
     57          1           0      -13.726227   -0.263490   -0.053081
     58          1           0      -14.157107    2.770831    0.113148
     59          1           0      -16.124782    0.281155   -0.009896
     60          1           0      -16.578921    3.309395    0.161483
     61          1           0      -17.855221    1.944812    0.094833
     62          1           0       17.236890    3.082784   -0.103342
 ---------------------------------------------------------------------
 Rotational constants (GHZ):           0.6036870           0.0129492           0.0126782
 Standard basis: 6-31G(d,p) (6D, 7F)
 There are   610 symmetry adapted cartesian basis functions of A   symmetry.
 There are   610 symmetry adapted basis functions of A   symmetry.
   610 basis functions,  1064 primitive gaussians,   610 cartesian basis functions
   106 alpha electrons      106 beta electrons
       nuclear repulsion energy      1904.5208892345 Hartrees.
 NAtoms=   62 NActive=   62 NUniq=   62 SFac= 1.00D+00 NAtFMM=   60 NAOKFM=T Big=T
 Integral buffers will be    131072 words long.
 Raffenetti 2 integral format.
 Two-electron integral symmetry is turned on.
 One-electron integrals computed using PRISM.
 NBasis=   610 RedAO= T EigKep=  7.30D-04  NBF=   610
 NBsUse=   610 1.00D-06 EigRej= -1.00D+00 NBFU=   610
 ExpMin= 1.61D-01 ExpMax= 3.05D+03 ExpMxC= 4.57D+02 IAcc=3 IRadAn=         5 AccDes= 0.00D+00
 Harris functional with IExCor=  402 and IRadAn=       5 diagonalized for initial guess.
 HarFok:  IExCor=  402 AccDes= 0.00D+00 IRadAn=         5 IDoV= 1 UseB2=F ITyADJ=14
 ICtDFT=  3500011 ScaDFX=  1.000000  1.000000  1.000000  1.000000
 FoFCou: FMM=F IPFlag=           0 FMFlag=      100000 FMFlg1=        2001
         NFxFlg=           0 DoJE=T BraDBF=F KetDBF=T FulRan=T
         wScrn=  0.000000 ICntrl=       500 IOpCl=  0 I1Cent=   200000004 NGrid=           0
         NMat0=    1 NMatS0=      1 NMatT0=    0 NMatD0=    1 NMtDS0=    0 NMtDT0=    0
 Petite list used in FoFCou.
 Requested convergence on RMS density matrix=1.00D-08 within 128 cycles.
 Requested convergence on MAX density matrix=1.00D-06.
 Requested convergence on             energy=1.00D-06.
 No special actions if energy rises.
 Integral accuracy reduced to 1.0D-05 until final iterations.
 Initial convergence to 1.0D-05 achieved.  Increase integral accuracy.
 SCF Done:  E(RB3LYP) =  -1162.28202382     A.U. after   13 cycles
            NFock= 13  Conv=0.74D-08     -V/T= 2.0101

 **********************************************************************

            Population analysis using the SCF Density.

 **********************************************************************

 Orbital symmetries:
       Occupied  (A) (A) (A) (A) (A) (A) (A) (A) (A) (A) (A) (A)
                 (A) (A) (A) (A) (A) (A) (A) (A) (A) (A) (A) (A)
                 (A) (A) (A) (A) (A) (A) (A) (A) (A) (A) (A) (A)
                 (A) (A) (A) (A) (A) (A) (A) (A) (A) (A) (A) (A)
                 (A) (A) (A) (A) (A) (A) (A) (A) (A) (A) (A) (A)
                 (A) (A) (A) (A) (A) (A) (A) (A) (A) (A) (A) (A)
                 (A) (A) (A) (A) (A) (A) (A) (A) (A) (A) (A) (A)
                 (A) (A) (A) (A) (A) (A) (A) (A) (A) (A) (A) (A)
                 (A) (A) (A) (A) (A) (A) (A) (A) (A) (A)
       Virtual   (A) (A) (A) (A) (A) (A) (A) (A) (A) (A) (A) (A)
                 (A) (A) (A) (A) (A) (A) (A) (A) (A) (A) (A) (A)
                 (A) (A) (A) (A) (A) (A) (A) (A) (A) (A) (A) (A)
                 (A) (A) (A) (A) (A) (A) (A) (A) (A) (A) (A) (A)
                 (A) (A) (A) (A) (A) (A) (A) (A) (A) (A) (A) (A)
                 (A) (A) (A) (A) (A) (A) (A) (A) (A) (A) (A) (A)
                 (A) (A) (A) (A) (A) (A) (A) (A) (A) (A) (A) (A)
                 (A) (A) (A) (A) (A) (A) (A) (A) (A) (A) (A) (A)
                 (A) (A) (A) (A) (A) (A) (A) (A) (A) (A) (A) (A)
                 (A) (A) (A) (A) (A) (A) (A) (A) (A) (A) (A) (A)
                 (A) (A) (A) (A) (A) (A) (A) (A) (A) (A) (A) (A)
                 (A) (A) (A) (A) (A) (A) (A) (A) (A) (A) (A) (A)
                 (A) (A) (A) (A) (A) (A) (A) (A) (A) (A) (A) (A)
                 (A) (A) (A) (A) (A) (A) (A) (A) (A) (A) (A) (A)
                 (A) (A) (A) (A) (A) (A) (A) (A) (A) (A) (A) (A)
                 (A) (A) (A) (A) (A) (A) (A) (A) (A) (A) (A) (A)
                 (A) (A) (A) (A) (A) (A) (A) (A) (A) (A) (A) (A)
                 (A) (A) (A) (A) (A) (A) (A) (A) (A) (A) (A) (A)
                 (A) (A) (A) (A) (A) (A) (A) (A) (A) (A) (A) (A)
                 (A) (A) (A) (A) (A) (A) (A) (A) (A) (A) (A) (A)
                 (A) (A) (A) (A) (A) (A) (A) (A) (A) (A) (A) (A)
                 (A) (A) (A) (A) (A) (A) (A) (A) (A) (A) (A) (A)
                 (A) (A) (A) (A) (A) (A) (A) (A) (A) (A) (A) (A)
                 (A) (A) (A) (A) (A) (A) (A) (A) (A) (A) (A) (A)
                 (A) (A) (A) (A) (A) (A) (A) (A) (A) (A) (A) (A)
                 (A) (A) (A) (A) (A) (A) (A) (A) (A) (A) (A) (A)
                 (A) (A) (A) (A) (A) (A) (A) (A) (A) (A) (A) (A)
                 (A) (A) (A) (A) (A) (A) (A) (A) (A) (A) (A) (A)
                 (A) (A) (A) (A) (A) (A) (A) (A) (A) (A) (A) (A)
                 (A) (A) (A) (A) (A) (A) (A) (A) (A) (A) (A) (A)
                 (A) (A) (A) (A) (A) (A) (A) (A) (A) (A) (A) (A)
                 (A) (A) (A) (A) (A) (A) (A) (A) (A) (A) (A) (A)
                 (A) (A) (A) (A) (A) (A) (A) (A) (A) (A) (A) (A)
                 (A) (A) (A) (A) (A) (A) (A) (A) (A) (A) (A) (A)
                 (A) (A) (A) (A) (A) (A) (A) (A) (A) (A) (A) (A)
                 (A) (A) (A) (A) (A) (A) (A) (A) (A) (A) (A) (A)
                 (A) (A) (A) (A) (A) (A) (A) (A) (A) (A) (A) (A)
                 (A) (A) (A) (A) (A) (A) (A) (A) (A) (A) (A) (A)
                 (A) (A) (A) (A) (A) (A) (A) (A) (A) (A) (A) (A)
                 (A) (A) (A) (A) (A) (A) (A) (A) (A) (A) (A) (A)
                 (A) (A) (A) (A) (A) (A) (A) (A) (A) (A) (A) (A)
                 (A) (A) (A) (A) (A) (A) (A) (A) (A) (A) (A) (A)
 The electronic state is 1-A.
 Alpha  occ. eigenvalues --  -10.19378 -10.19377 -10.19351 -10.19343 -10.19283
 Alpha  occ. eigenvalues --  -10.19280 -10.19258 -10.19235 -10.19226 -10.19217
 Alpha  occ. eigenvalues --  -10.19215 -10.19207 -10.19190 -10.19187 -10.19182
 Alpha  occ. eigenvalues --  -10.19166 -10.19163 -10.19141 -10.19137 -10.19119
 Alpha  occ. eigenvalues --  -10.19115 -10.19109 -10.19098 -10.19072 -10.19044
 Alpha  occ. eigenvalues --  -10.19020 -10.19008 -10.18941 -10.17969 -10.17917
 Alpha  occ. eigenvalues --   -0.82878  -0.82669  -0.82289  -0.81767  -0.81085
 Alpha  occ. eigenvalues --   -0.80310  -0.79370  -0.78307  -0.77126  -0.75840
 Alpha  occ. eigenvalues --   -0.74404  -0.72993  -0.71485  -0.70171  -0.68441
 Alpha  occ. eigenvalues --   -0.65010  -0.62738  -0.61564  -0.60071  -0.58677
 Alpha  occ. eigenvalues --   -0.57622  -0.56870  -0.56390  -0.56127  -0.55428
 Alpha  occ. eigenvalues --   -0.55080  -0.55002  -0.54524  -0.52689  -0.50130
 Alpha  occ. eigenvalues --   -0.50066  -0.48538  -0.47895  -0.47474  -0.46777
 Alpha  occ. eigenvalues --   -0.46433  -0.45559  -0.44965  -0.44611  -0.43481
 Alpha  occ. eigenvalues --   -0.43158  -0.41636  -0.41335  -0.40867  -0.39958
 Alpha  occ. eigenvalues --   -0.39458  -0.38855  -0.38393  -0.37976  -0.37706
 Alpha  occ. eigenvalues --   -0.37501  -0.37070  -0.36621  -0.36260  -0.35866
 Alpha  occ. eigenvalues --   -0.35572  -0.35197  -0.34937  -0.34780  -0.34494
 Alpha  occ. eigenvalues --   -0.34455  -0.34172  -0.33810  -0.33571  -0.33195
 Alpha  occ. eigenvalues --   -0.32943  -0.31960  -0.30766  -0.29408  -0.27887
 Alpha  occ. eigenvalues --   -0.26224  -0.24405  -0.22501  -0.20531  -0.18655
 Alpha  occ. eigenvalues --   -0.17026
 Alpha virt. eigenvalues --   -0.08325  -0.06168  -0.04289  -0.02085  -0.00077
 Alpha virt. eigenvalues --    0.02128   0.04180   0.05752   0.07337   0.07840
 Alpha virt. eigenvalues --    0.08403   0.08540   0.08939   0.09375   0.09668
 Alpha virt. eigenvalues --    0.09740   0.09897   0.10592   0.11690   0.11743
 Alpha virt. eigenvalues --    0.12063   0.12458   0.12578   0.12613   0.12943
 Alpha virt. eigenvalues --    0.13210   0.13943   0.14237   0.14320   0.14416
 Alpha virt. eigenvalues --    0.14878   0.14896   0.15218   0.15442   0.15745
 Alpha virt. eigenvalues --    0.16150   0.16659   0.18106   0.18659   0.19546
 Alpha virt. eigenvalues --    0.19733   0.19973   0.20581   0.21326   0.22467
 Alpha virt. eigenvalues --    0.22901   0.25881   0.27134   0.27283   0.27416
 Alpha virt. eigenvalues --    0.28631   0.28843   0.29859   0.31176   0.31918
 Alpha virt. eigenvalues --    0.32391   0.32665   0.33220   0.34313   0.34749
 Alpha virt. eigenvalues --    0.35814   0.36189   0.36320   0.37098   0.38010
 Alpha virt. eigenvalues --    0.38499   0.39166   0.40280   0.41393   0.41725
 Alpha virt. eigenvalues --    0.42037   0.42509   0.44361   0.44835   0.45260
 Alpha virt. eigenvalues --    0.47527   0.48674   0.49054   0.51346   0.51679
 Alpha virt. eigenvalues --    0.51726   0.51983   0.52455   0.53013   0.53524
 Alpha virt. eigenvalues --    0.53823   0.54051   0.54784   0.54970   0.55725
 Alpha virt. eigenvalues --    0.55862   0.56666   0.57037   0.57478   0.57646
 Alpha virt. eigenvalues --    0.58030   0.58496   0.58676   0.58798   0.58921
 Alpha virt. eigenvalues --    0.59051   0.59096   0.59265   0.59932   0.60260
 Alpha virt. eigenvalues --    0.60432   0.60809   0.61184   0.61799   0.62106
 Alpha virt. eigenvalues --    0.62350   0.63075   0.63332   0.63570   0.63994
 Alpha virt. eigenvalues --    0.64435   0.64524   0.65099   0.65317   0.65403
 Alpha virt. eigenvalues --    0.65482   0.66044   0.66468   0.66518   0.66758
 Alpha virt. eigenvalues --    0.66855   0.67952   0.68485   0.69124   0.69583
 Alpha virt. eigenvalues --    0.69775   0.70788   0.71674   0.72876   0.73221
 Alpha virt. eigenvalues --    0.74963   0.75268   0.76000   0.78757   0.79316
 Alpha virt. eigenvalues --    0.79568   0.80606   0.80928   0.81659   0.82153
 Alpha virt. eigenvalues --    0.83028   0.83462   0.83831   0.84315   0.84662
 Alpha virt. eigenvalues --    0.84738   0.85068   0.85422   0.85812   0.86263
 Alpha virt. eigenvalues --    0.86420   0.86746   0.86918   0.87183   0.87334
 Alpha virt. eigenvalues --    0.87689   0.88187   0.88298   0.89097   0.89684
 Alpha virt. eigenvalues --    0.90798   0.91332   0.91518   0.91663   0.92195
 Alpha virt. eigenvalues --    0.92429   0.92977   0.93351   0.93648   0.94092
 Alpha virt. eigenvalues --    0.94601   0.95764   0.96749   0.97549   0.97746
 Alpha virt. eigenvalues --    1.00863   1.02763   1.03312   1.03380   1.04075
 Alpha virt. eigenvalues --    1.04506   1.04999   1.05715   1.05861   1.06174
 Alpha virt. eigenvalues --    1.07106   1.07445   1.08294   1.09221   1.09495
 Alpha virt. eigenvalues --    1.10308   1.10576   1.11401   1.12244   1.13223
 Alpha virt. eigenvalues --    1.16937   1.17486   1.18803   1.20206   1.20834
 Alpha virt. eigenvalues --    1.21303   1.22085   1.23713   1.24460   1.25735
 Alpha virt. eigenvalues --    1.27764   1.28216   1.29103   1.29542   1.29694
 Alpha virt. eigenvalues --    1.30063   1.30189   1.30809   1.30872   1.30990
 Alpha virt. eigenvalues --    1.31206   1.31541   1.31792   1.32009   1.32535
 Alpha virt. eigenvalues --    1.32737   1.32825   1.33079   1.33557   1.33944
 Alpha virt. eigenvalues --    1.34564   1.36549   1.37318   1.37751   1.38483
 Alpha virt. eigenvalues --    1.40362   1.40649   1.40735   1.42989   1.43383
 Alpha virt. eigenvalues --    1.43954   1.44610   1.45743   1.46253   1.46564
 Alpha virt. eigenvalues --    1.47125   1.47904   1.48621   1.48652   1.49360
 Alpha virt. eigenvalues --    1.50319   1.50641   1.51426   1.51834   1.51854
 Alpha virt. eigenvalues --    1.52271   1.53544   1.57456   1.68102   1.73952
 Alpha virt. eigenvalues --    1.75385   1.76268   1.76453   1.76538   1.76583
 Alpha virt. eigenvalues --    1.76846   1.76942   1.77374   1.77408   1.78050
 Alpha virt. eigenvalues --    1.78164   1.78528   1.78816   1.83012   1.84606
 Alpha virt. eigenvalues --    1.85862   1.85930   1.86253   1.86270   1.87720
 Alpha virt. eigenvalues --    1.89688   1.89796   1.91689   1.91917   1.92437
 Alpha virt. eigenvalues --    1.92757   1.92869   1.93662   1.93859   1.93871
 Alpha virt. eigenvalues --    1.94008   1.94720   1.95549   1.95878   1.96416
 Alpha virt. eigenvalues --    1.96504   1.97678   1.98374   1.98780   1.99174
 Alpha virt. eigenvalues --    2.01602   2.02112   2.03324   2.03488   2.03976
 Alpha virt. eigenvalues --    2.04451   2.05979   2.06671   2.08110   2.08667
 Alpha virt. eigenvalues --    2.09248   2.10055   2.10989   2.11094   2.12319
 Alpha virt. eigenvalues --    2.13004   2.13813   2.14558   2.14995   2.16027
 Alpha virt. eigenvalues --    2.17266   2.17910   2.18203   2.18510   2.19693
 Alpha virt. eigenvalues --    2.20295   2.20533   2.21814   2.21892   2.23410
 Alpha virt. eigenvalues --    2.23687   2.24147   2.25144   2.25573   2.27295
 Alpha virt. eigenvalues --    2.27534   2.29246   2.29987   2.31216   2.32734
 Alpha virt. eigenvalues --    2.32989   2.34322   2.35924   2.36377   2.37140
 Alpha virt. eigenvalues --    2.38225   2.39040   2.41569   2.41600   2.42078
 Alpha virt. eigenvalues --    2.44173   2.44840   2.45407   2.46396   2.46568
 Alpha virt. eigenvalues --    2.46968   2.47125   2.48179   2.48410   2.48508
 Alpha virt. eigenvalues --    2.48650   2.49114   2.49681   2.50334   2.50844
 Alpha virt. eigenvalues --    2.51035   2.51848   2.52069   2.52622   2.52746
 Alpha virt. eigenvalues --    2.53091   2.53459   2.54469   2.55405   2.55875
 Alpha virt. eigenvalues --    2.55906   2.56928   2.57138   2.57782   2.58643
 Alpha virt. eigenvalues --    2.58746   2.59257   2.60136   2.60220   2.60623
 Alpha virt. eigenvalues --    2.61341   2.61989   2.62454   2.62656   2.63209
 Alpha virt. eigenvalues --    2.64545   2.64853   2.65463   2.65773   2.66316
 Alpha virt. eigenvalues --    2.67226   2.67758   2.68589   2.68816   2.69258
 Alpha virt. eigenvalues --    2.69309   2.70030   2.70333   2.70620   2.70855
 Alpha virt. eigenvalues --    2.71462   2.71831   2.72242   2.73215   2.74155
 Alpha virt. eigenvalues --    2.75545   2.78785   2.79356   2.79894   2.83658
 Alpha virt. eigenvalues --    2.84191   2.86567   2.86606   2.88515   2.89136
 Alpha virt. eigenvalues --    2.89381   2.91403   2.91912   2.92099   2.92451
 Alpha virt. eigenvalues --    2.93149   2.94458   2.94737   2.95565   2.95929
 Alpha virt. eigenvalues --    2.97379   2.97490   2.98948   2.99107   2.99729
 Alpha virt. eigenvalues --    2.99796   3.00022   3.01584   3.03178   3.10525
 Alpha virt. eigenvalues --    3.16060   3.20288   3.27982   3.28031   3.32974
 Alpha virt. eigenvalues --    3.33199   3.34101   3.35057   3.35302   3.35442
 Alpha virt. eigenvalues --    3.36431   3.36555   3.38591   3.40109   3.41272
 Alpha virt. eigenvalues --    3.44657   3.45424   3.49111   3.52567   3.53180
 Alpha virt. eigenvalues --    3.53915   3.55104   3.56015   3.58689   3.60107
 Alpha virt. eigenvalues --    3.61332   3.63398   3.64646   3.65846   3.66752
 Alpha virt. eigenvalues --    3.70710   3.71037   3.72934   3.79256   4.10822
 Alpha virt. eigenvalues --    4.12256   4.13558   4.13737   4.13823   4.13957
 Alpha virt. eigenvalues --    4.14327   4.14761   4.15273   4.16025   4.17214
 Alpha virt. eigenvalues --    4.18305   4.19742   4.21011   4.25713   4.26181
 Alpha virt. eigenvalues --    4.30717   4.33587   4.36815   4.40343   4.44758
 Alpha virt. eigenvalues --    4.49028   4.53417   4.57811   4.62129   4.66300
 Alpha virt. eigenvalues --    4.69635   4.72587   4.74667   4.76538
          Condensed to atoms (all electrons):
 Mulliken charges:
               1
     1  C   -0.251716
     2  C   -0.033808
     3  C   -0.077052
     4  C   -0.077056
     5  C   -0.083336
     6  C   -0.075769
     7  C   -0.056021
     8  C   -0.106754
     9  C   -0.076708
    10  C   -0.084464
    11  C   -0.081590
    12  C   -0.079817
    13  C   -0.079870
    14  C   -0.081680
    15  C   -0.084837
    16  C   -0.076269
    17  C   -0.106599
    18  C   -0.055840
    19  C   -0.076949
    20  C   -0.081933
    21  C   -0.080425
    22  C   -0.078734
    23  C   -0.080217
    24  C   -0.079526
    25  C   -0.079324
    26  C   -0.080587
    27  C   -0.076952
    28  C   -0.077777
    29  C   -0.033658
    30  C   -0.251944
    31  H    0.095748
    32  H    0.084014
    33  H    0.081918
    34  H    0.081455
    35  H    0.080932
    36  H    0.081091
    37  H    0.081826
    38  H    0.080404
    39  H    0.080333
    40  H    0.079456
    41  H    0.080593
    42  H    0.080275
    43  H    0.080277
    44  H    0.080647
    45  H    0.079425
    46  H    0.080211
    47  H    0.080246
    48  H    0.081843
    49  H    0.080767
    50  H    0.080565
    51  H    0.080310
    52  H    0.080502
    53  H    0.080107
    54  H    0.080457
    55  H    0.080198
    56  H    0.080702
    57  H    0.080936
    58  H    0.081650
    59  H    0.083711
    60  H    0.095528
    61  H    0.095383
    62  H    0.095701
 Sum of Mulliken charges =  -0.00000
 Mulliken charges with hydrogens summed into heavy atoms:
               1
     1  C   -0.060268
     2  C    0.050207
     3  C    0.004866
     4  C    0.004399
     5  C   -0.002404
     6  C    0.005322
     7  C    0.025805
     8  C   -0.026351
     9  C    0.003625
    10  C   -0.005008
    11  C   -0.000997
    12  C    0.000458
    13  C    0.000407
    14  C   -0.001033
    15  C   -0.005411
    16  C    0.003942
    17  C   -0.026353
    18  C    0.026004
    19  C    0.003818
    20  C   -0.001368
    21  C   -0.000114
    22  C    0.001768
    23  C   -0.000110
    24  C    0.000931
    25  C    0.000874
    26  C    0.000115
    27  C    0.003984
    28  C    0.003872
    29  C    0.050053
    30  C   -0.061033
 Electronic spatial extent (au):  <R**2>=          78124.3700
 Charge=             -0.0000 electrons
 Dipole moment (field-independent basis, Debye):
    X=              0.0463    Y=             -0.1978    Z=             -0.0022  Tot=              0.2032
 Quadrupole moment (field-independent basis, Debye-Ang):
   XX=           -169.0669   YY=           -158.4638   ZZ=           -195.1657
   XY=              0.0002   XZ=              0.2492   YZ=              0.0727
 Traceless Quadrupole moment (field-independent basis, Debye-Ang):
   XX=              5.1652   YY=             15.7683   ZZ=            -20.9336
   XY=              0.0002   XZ=              0.2492   YZ=              0.0727
 Octapole moment (field-independent basis, Debye-Ang**2):
  XXX=             75.1952  YYY=             -6.5266  ZZZ=              0.0007  XYY=             -6.2753
  XXY=            -96.7920  XXZ=              2.2279  XZZ=              0.4229  YZZ=             -0.9090
  YYZ=             -0.2836  XYZ=            -15.2900
 Hexadecapole moment (field-independent basis, Debye-Ang**3):
 XXXX=        -101233.8982 YYYY=          -2332.1885 ZZZZ=           -206.8207 XXXY=            -28.1504
 XXXZ=             67.2516 YYYX=            -45.9438 YYYZ=             -1.2241 ZZZX=              1.7671
 ZZZY=              0.0702 XXYY=         -16657.2634 XXZZ=         -19706.5204 YYZZ=           -503.5013
 XXYZ=              2.8213 YYXZ=            -28.5881 ZZXY=             -2.3244
 N-N= 1.904520889234D+03 E-N=-6.497388887297D+03  KE= 1.150615434822D+03
 Calling FoFJK, ICntrl=      2127 FMM=T ISym2X=0 I1Cent= 0 IOpClX= 0 NMat=1 NMatS=1 NMatT=0.
 ***** Axes restored to original set *****
 -------------------------------------------------------------------
 Center     Atomic                   Forces (Hartrees/Bohr)
 Number     Number              X              Y              Z
 -------------------------------------------------------------------
      1        6          -0.008775577    0.003307152    0.000435360
      2        6           0.015621355   -0.015502608    0.011871439
      3        6          -0.025679866    0.017153273   -0.008533211
      4        6           0.029715323   -0.018808527    0.008498923
      5        6          -0.031186135    0.018110711   -0.006692355
      6        6           0.033864248   -0.018339694    0.005560437
      7        6          -0.029783850    0.020513011   -0.010686071
      8        6           0.033283528   -0.012076828   -0.003105925
      9        6          -0.029891530    0.011841915    0.001523735
     10        6           0.030942568   -0.011050107   -0.003049877
     11        6          -0.030513450    0.014099972   -0.001479501
     12        6           0.030219844   -0.014415502    0.001358563
     13        6          -0.031142088    0.011453519    0.003500480
     14        6           0.031477663   -0.011423808   -0.003322369
     15        6          -0.030327704    0.013868457   -0.001082955
     16        6           0.030034487   -0.012896111   -0.000675360
     17        6          -0.032602897    0.015360097   -0.001454645
     18        6           0.035469099   -0.007189855   -0.012945768
     19        6          -0.037677152    0.011573481    0.007443129
     20        6           0.036272418   -0.010122105   -0.008945035
     21        6          -0.036765843    0.009876893    0.009488313
     22        6           0.036187970   -0.009437313   -0.009843137
     23        6          -0.036167194    0.009084203    0.010229314
     24        6           0.035597039   -0.008770958   -0.010384661
     25        6          -0.035296769    0.008217642    0.010968540
     26        6           0.034198874   -0.007834656   -0.010867159
     27        6          -0.033050005    0.006474879    0.012290239
     28        6           0.029207193   -0.005128615   -0.011894388
     29        6          -0.020368355   -0.000063278    0.014481271
     30        6           0.008708295   -0.003377762   -0.000390767
     31        1          -0.002324190    0.000484669    0.000651754
     32        1           0.004918693   -0.000341125   -0.002220005
     33        1          -0.003301375    0.000646436    0.000997845
     34        1           0.003102258   -0.000567248   -0.000932932
     35        1          -0.003107727    0.000565190    0.001043356
     36        1           0.003205030   -0.000586628   -0.000974615
     37        1          -0.001800530   -0.000945187    0.002257530
     38        1           0.000157761    0.000339442   -0.000440136
     39        1           0.003618710    0.000169273   -0.002271094
     40        1          -0.002191911   -0.000568518    0.002187624
     41        1           0.001312047   -0.002041954    0.002068537
     42        1          -0.002173950    0.002489898   -0.002234253
     43        1           0.003320152    0.000261804   -0.002409131
     44        1          -0.002269719   -0.000476359    0.002240739
     45        1           0.001074642   -0.001856750    0.002056866
     46        1          -0.002675922    0.002575547   -0.002213475
     47        1           0.000156583    0.000189675   -0.000492960
     48        1           0.000867081   -0.001783812    0.002272903
     49        1          -0.002779878    0.001724578   -0.000858606
     50        1           0.002643108   -0.001776085    0.000947103
     51        1          -0.002742328    0.001649790   -0.000813864
     52        1           0.002682790   -0.001721388    0.000871191
     53        1          -0.002764248    0.001629849   -0.000800778
     54        1           0.002715397   -0.001686180    0.000834729
     55        1          -0.002767830    0.001613856   -0.000792766
     56        1           0.002735213   -0.001643604    0.000792415
     57        1          -0.002751162    0.001595852   -0.000782711
     58        1           0.002949634   -0.001703357    0.000777287
     59        1          -0.004098942    0.002879074   -0.002019557
     60        1           0.002101231   -0.001169290    0.000486410
     61        1           0.000221166   -0.002338657    0.003834608
     62        1          -0.001603270   -0.002106270    0.003639428
 -------------------------------------------------------------------
 Cartesian Forces:  Max     0.037677152 RMS     0.013808428

 GradGradGradGradGradGradGradGradGradGradGradGradGradGradGradGradGradGrad
 Berny optimization.
 FormGI is forming the generalized inverse of G from B-inverse, IUseBI=4.
 Internal  Forces:  Max     0.022455264 RMS     0.007372298
 Search for a local minimum.
 Step number   1 out of a maximum of  277
 All quantities printed in internal units (Hartrees-Bohrs-Radians)
 Mixed Optimization -- RFO/linear search
 Second derivative matrix not updated -- first step.
 ITU=  0
     Eigenvalues ---    0.00885   0.00888   0.00928   0.00938   0.00945
     Eigenvalues ---    0.01043   0.01043   0.01054   0.01055   0.01055
     Eigenvalues ---    0.01055   0.01056   0.01063   0.01064   0.01858
     Eigenvalues ---    0.01859   0.01859   0.01863   0.01886   0.01888
     Eigenvalues ---    0.01891   0.01898   0.01903   0.01905   0.01957
     Eigenvalues ---    0.01960   0.01968   0.01969   0.01973   0.01975
     Eigenvalues ---    0.01976   0.01976   0.01976   0.01976   0.01976
     Eigenvalues ---    0.01976   0.01977   0.01977   0.01981   0.01982
     Eigenvalues ---    0.01997   0.01998   0.02745   0.02746   0.02751
     Eigenvalues ---    0.02752   0.02820   0.02823   0.02884   0.02888
     Eigenvalues ---    0.02888   0.02889   0.02889   0.02889   0.02891
     Eigenvalues ---    0.02949   0.02949   0.02950   0.02950   0.16000
     Eigenvalues ---    0.16000   0.16000   0.16000   0.16000   0.16000
     Eigenvalues ---    0.16000   0.16000   0.16000   0.16000   0.16000
     Eigenvalues ---    0.16000   0.16000   0.16000   0.16000   0.16000
     Eigenvalues ---    0.16000   0.16000   0.16000   0.16000   0.16000
     Eigenvalues ---    0.16000   0.16000   0.16000   0.16000   0.16000
     Eigenvalues ---    0.16000   0.16000   0.16000   0.16000   0.16000
     Eigenvalues ---    0.16000   0.22000   0.22000   0.22000   0.22000
     Eigenvalues ---    0.22000   0.22000   0.22000   0.22000   0.22000
     Eigenvalues ---    0.22000   0.22000   0.22000   0.22000   0.22000
     Eigenvalues ---    0.22000   0.22000   0.22000   0.22000   0.22000
     Eigenvalues ---    0.22000   0.22000   0.22000   0.22000   0.22000
     Eigenvalues ---    0.22000   0.22000   0.22000   0.22000   0.33338
     Eigenvalues ---    0.33368   0.33699   0.33781   0.33844   0.34674
     Eigenvalues ---    0.34679   0.34775   0.34779   0.34782   0.34783
     Eigenvalues ---    0.34790   0.34854   0.34860   0.35063   0.35064
     Eigenvalues ---    0.35068   0.35068   0.35072   0.35074   0.35075
     Eigenvalues ---    0.35088   0.35090   0.35094   0.35097   0.35102
     Eigenvalues ---    0.35106   0.35112   0.35160   0.35163   0.35181
     Eigenvalues ---    0.35186   0.35280   0.35282   0.35365   0.35367
     Eigenvalues ---    0.35587   0.35597   0.35706   0.35734   0.35753
     Eigenvalues ---    0.35760   0.35864   0.35880   0.35881   0.35884
     Eigenvalues ---    0.54941   0.54956   0.55034   0.55044   0.56152
     Eigenvalues ---    0.56211   0.57239   0.57298   0.57301   0.57308
     Eigenvalues ---    0.57313   0.57323   0.57351   0.58351   0.58366
 RFO step:  Lambda=-4.12098482D-02 EMin= 8.84676288D-03
 Linear search not attempted -- first point.
 Maximum step size (   0.300) exceeded in Quadratic search.
    -- Step size scaled by   0.830
 Iteration  1 RMS(Cart)=  0.13346020 RMS(Int)=  0.00055196
 Iteration  2 RMS(Cart)=  0.00364512 RMS(Int)=  0.00000239
 Iteration  3 RMS(Cart)=  0.00000122 RMS(Int)=  0.00000238
 Iteration  4 RMS(Cart)=  0.00000000 RMS(Int)=  0.00000238
 Variable       Old X    -DE/DX   Delta X   Delta X   Delta X     New X
                                 (Linear)    (Quad)   (Total)
    R1        2.52257   0.01205   0.00000   0.01601   0.01601   2.53859
    R2        2.05220  -0.00014   0.00000  -0.00029  -0.00029   2.05191
    R3        2.05086   0.00013   0.00000   0.00027   0.00027   2.05113
    R4        2.79212  -0.01436   0.00000  -0.03060  -0.03060   2.76152
    R5        2.05381   0.00057   0.00000   0.00120   0.00120   2.05502
    R6        2.53100   0.01916   0.00000   0.02588   0.02588   2.55688
    R7        2.05532  -0.00022   0.00000  -0.00046  -0.00046   2.05486
    R8        2.79330  -0.01842   0.00000  -0.03932  -0.03932   2.75399
    R9        2.05565  -0.00019   0.00000  -0.00040  -0.00040   2.05525
   R10        2.53143   0.02156   0.00000   0.02915   0.02915   2.56057
   R11        2.05522  -0.00012   0.00000  -0.00025  -0.00025   2.05497
   R12        2.79508  -0.02080   0.00000  -0.04452  -0.04452   2.75056
   R13        2.05571  -0.00022   0.00000  -0.00046  -0.00046   2.05525
   R14        2.54071   0.01473   0.00000   0.02027   0.02027   2.56099
   R15        2.04716   0.00200   0.00000   0.00419   0.00419   2.05135
   R16        2.81001  -0.01818   0.00000  -0.03982  -0.03982   2.77018
   R17        2.05415   0.00051   0.00000   0.00107   0.00107   2.05523
   R18        2.55171   0.00565   0.00000   0.00794   0.00794   2.55965
   R19        2.04270   0.00385   0.00000   0.00798   0.00798   2.05069
   R20        2.81709  -0.02032   0.00000  -0.04502  -0.04502   2.77207
   R21        2.04499   0.00310   0.00000   0.00645   0.00645   2.05144
   R22        2.55102   0.00658   0.00000   0.00924   0.00924   2.56026
   R23        2.04469   0.00311   0.00000   0.00647   0.00647   2.05116
   R24        2.81140  -0.01921   0.00000  -0.04219  -0.04219   2.76922
   R25        2.04296   0.00369   0.00000   0.00766   0.00766   2.05062
   R26        2.55184   0.00610   0.00000   0.00858   0.00858   2.56042
   R27        2.04268   0.00378   0.00000   0.00785   0.00785   2.05053
   R28        2.81763  -0.02056   0.00000  -0.04558  -0.04558   2.77205
   R29        2.04459   0.00314   0.00000   0.00654   0.00654   2.05113
   R30        2.55093   0.00636   0.00000   0.00893   0.00893   2.55986
   R31        2.04543   0.00294   0.00000   0.00614   0.00614   2.05157
   R32        2.80894  -0.01825   0.00000  -0.03992  -0.03992   2.76903
   R33        2.04264   0.00387   0.00000   0.00803   0.00803   2.05067
   R34        2.54122   0.01502   0.00000   0.02070   0.02070   2.56192
   R35        2.05410   0.00053   0.00000   0.00112   0.00112   2.05522
   R36        2.79499  -0.02142   0.00000  -0.04585  -0.04585   2.74914
   R37        2.04733   0.00193   0.00000   0.00404   0.00404   2.05137
   R38        2.53195   0.02246   0.00000   0.03039   0.03039   2.56234
   R39        2.05573  -0.00022   0.00000  -0.00047  -0.00047   2.05526
   R40        2.79341  -0.02002   0.00000  -0.04274  -0.04274   2.75067
   R41        2.05494  -0.00003   0.00000  -0.00007  -0.00007   2.05487
   R42        2.53145   0.02225   0.00000   0.03008   0.03008   2.56154
   R43        2.05564  -0.00020   0.00000  -0.00042  -0.00042   2.05522
   R44        2.79335  -0.01960   0.00000  -0.04183  -0.04183   2.75152
   R45        2.05502  -0.00008   0.00000  -0.00016  -0.00016   2.05486
   R46        2.53136   0.02187   0.00000   0.02957   0.02957   2.56093
   R47        2.05559  -0.00018   0.00000  -0.00038  -0.00038   2.05521
   R48        2.79328  -0.01913   0.00000  -0.04083  -0.04083   2.75245
   R49        2.05510  -0.00009   0.00000  -0.00020  -0.00020   2.05490
   R50        2.53133   0.02108   0.00000   0.02850   0.02850   2.55982
   R51        2.05554  -0.00016   0.00000  -0.00034  -0.00034   2.05520
   R52        2.79317  -0.01805   0.00000  -0.03853  -0.03853   2.75464
   R53        2.05518  -0.00013   0.00000  -0.00026  -0.00026   2.05492
   R54        2.53124   0.01884   0.00000   0.02545   0.02545   2.55669
   R55        2.05554  -0.00015   0.00000  -0.00031  -0.00031   2.05523
   R56        2.79203  -0.01425   0.00000  -0.03036  -0.03036   2.76167
   R57        2.05529  -0.00020   0.00000  -0.00043  -0.00043   2.05486
   R58        2.52269   0.01194   0.00000   0.01587   0.01587   2.53856
   R59        2.05374   0.00060   0.00000   0.00126   0.00126   2.05501
   R60        2.05222  -0.00014   0.00000  -0.00031  -0.00031   2.05191
   R61        2.05084   0.00014   0.00000   0.00030   0.00030   2.05114
    A1        2.11478   0.00029   0.00000   0.00119   0.00119   2.11596
    A2        2.09356   0.00447   0.00000   0.01844   0.01844   2.11200
    A3        2.07485  -0.00476   0.00000  -0.01963  -0.01963   2.05522
    A4        2.11471   0.01171   0.00000   0.03721   0.03721   2.15192
    A5        2.07574  -0.00033   0.00000   0.00418   0.00418   2.07993
    A6        2.09273  -0.01137   0.00000  -0.04139  -0.04139   2.05134
    A7        2.10893   0.01236   0.00000   0.03930   0.03930   2.14823
    A8        2.08252  -0.00978   0.00000  -0.03450  -0.03450   2.04802
    A9        2.09173  -0.00258   0.00000  -0.00480  -0.00480   2.08693
   A10        2.11347   0.01226   0.00000   0.03898   0.03898   2.15245
   A11        2.08902  -0.00276   0.00000  -0.00556  -0.00556   2.08345
   A12        2.08070  -0.00951   0.00000  -0.03342  -0.03342   2.04728
   A13        2.10715   0.01278   0.00000   0.04064   0.04064   2.14779
   A14        2.08384  -0.00981   0.00000  -0.03442  -0.03442   2.04942
   A15        2.09219  -0.00298   0.00000  -0.00622  -0.00622   2.08597
   A16        2.11679   0.01123   0.00000   0.03571   0.03571   2.15250
   A17        2.08669  -0.00213   0.00000  -0.00346  -0.00346   2.08323
   A18        2.07970  -0.00910   0.00000  -0.03225  -0.03225   2.04745
   A19        2.09830   0.01188   0.00000   0.03776   0.03776   2.13606
   A20        2.06614  -0.00828   0.00000  -0.02853  -0.02853   2.03761
   A21        2.11874  -0.00360   0.00000  -0.00922  -0.00922   2.10952
   A22        2.19031   0.00793   0.00000   0.02521   0.02521   2.21551
   A23        2.06943  -0.00369   0.00000  -0.01147  -0.01147   2.05796
   A24        2.02344  -0.00424   0.00000  -0.01373  -0.01373   2.00970
   A25        2.18273   0.00571   0.00000   0.01815   0.01815   2.20088
   A26        1.99819  -0.00095   0.00000  -0.00121  -0.00121   1.99698
   A27        2.10227  -0.00476   0.00000  -0.01694  -0.01694   2.08533
   A28        2.17862   0.00810   0.00000   0.02575   0.02575   2.20437
   A29        2.09522  -0.00464   0.00000  -0.01529  -0.01529   2.07993
   A30        2.00935  -0.00346   0.00000  -0.01046  -0.01046   1.99889
   A31        2.17703   0.00818   0.00000   0.02601   0.02601   2.20304
   A32        2.00904  -0.00336   0.00000  -0.00997  -0.00997   1.99907
   A33        2.09711  -0.00483   0.00000  -0.01604  -0.01604   2.08107
   A34        2.18757   0.00586   0.00000   0.01863   0.01863   2.20620
   A35        2.09928  -0.00448   0.00000  -0.01572  -0.01572   2.08356
   A36        1.99633  -0.00138   0.00000  -0.00291  -0.00291   1.99341
   A37        2.18809   0.00571   0.00000   0.01815   0.01815   2.20624
   A38        1.99542  -0.00121   0.00000  -0.00229  -0.00229   1.99313
   A39        2.09967  -0.00450   0.00000  -0.01586  -0.01586   2.08381
   A40        2.17667   0.00826   0.00000   0.02626   0.02626   2.20294
   A41        2.09723  -0.00488   0.00000  -0.01623  -0.01623   2.08101
   A42        2.00928  -0.00338   0.00000  -0.01003  -0.01003   1.99924
   A43        2.17730   0.00840   0.00000   0.02671   0.02671   2.20401
   A44        2.01132  -0.00378   0.00000  -0.01163  -0.01163   1.99969
   A45        2.09456  -0.00462   0.00000  -0.01508  -0.01508   2.07948
   A46        2.18393   0.00543   0.00000   0.01726   0.01726   2.20119
   A47        2.10241  -0.00468   0.00000  -0.01675  -0.01675   2.08566
   A48        1.99685  -0.00075   0.00000  -0.00051  -0.00051   1.99634
   A49        2.19261   0.00745   0.00000   0.02368   0.02368   2.21629
   A50        2.02147  -0.00388   0.00000  -0.01248  -0.01248   2.00899
   A51        2.06911  -0.00357   0.00000  -0.01120  -0.01120   2.05791
   A52        2.09422   0.01258   0.00000   0.03998   0.03998   2.13419
   A53        2.11990  -0.00392   0.00000  -0.01021  -0.01021   2.10969
   A54        2.06906  -0.00866   0.00000  -0.02977  -0.02977   2.03929
   A55        2.12174   0.01048   0.00000   0.03331   0.03331   2.15505
   A56        2.07682  -0.00871   0.00000  -0.03097  -0.03097   2.04585
   A57        2.08462  -0.00177   0.00000  -0.00234  -0.00234   2.08228
   A58        2.10184   0.01370   0.00000   0.04357   0.04357   2.14540
   A59        2.09445  -0.00344   0.00000  -0.00770  -0.00770   2.08676
   A60        2.08689  -0.01027   0.00000  -0.03587  -0.03587   2.05102
   A61        2.11904   0.01136   0.00000   0.03612   0.03612   2.15516
   A62        2.07745  -0.00907   0.00000  -0.03204  -0.03204   2.04541
   A63        2.08670  -0.00229   0.00000  -0.00408  -0.00408   2.08262
   A64        2.10375   0.01357   0.00000   0.04313   0.04313   2.14688
   A65        2.09333  -0.00339   0.00000  -0.00755  -0.00755   2.08578
   A66        2.08610  -0.01018   0.00000  -0.03557  -0.03557   2.05053
   A67        2.11685   0.01173   0.00000   0.03729   0.03729   2.15414
   A68        2.07869  -0.00926   0.00000  -0.03265  -0.03265   2.04603
   A69        2.08764  -0.00247   0.00000  -0.00464  -0.00464   2.08301
   A70        2.10590   0.01324   0.00000   0.04208   0.04208   2.14798
   A71        2.09241  -0.00323   0.00000  -0.00704  -0.00704   2.08537
   A72        2.08488  -0.01001   0.00000  -0.03504  -0.03504   2.04983
   A73        2.11466   0.01208   0.00000   0.03841   0.03841   2.15307
   A74        2.07991  -0.00943   0.00000  -0.03319  -0.03319   2.04672
   A75        2.08862  -0.00265   0.00000  -0.00522  -0.00522   2.08339
   A76        2.10798   0.01283   0.00000   0.04079   0.04079   2.14878
   A77        2.09156  -0.00304   0.00000  -0.00646  -0.00646   2.08510
   A78        2.08364  -0.00979   0.00000  -0.03433  -0.03433   2.04931
   A79        2.11274   0.01244   0.00000   0.03954   0.03954   2.15229
   A80        2.08108  -0.00958   0.00000  -0.03365  -0.03365   2.04743
   A81        2.08936  -0.00286   0.00000  -0.00589  -0.00589   2.08347
   A82        2.10932   0.01233   0.00000   0.03919   0.03919   2.14851
   A83        2.09159  -0.00258   0.00000  -0.00480  -0.00480   2.08679
   A84        2.08228  -0.00975   0.00000  -0.03438  -0.03438   2.04789
   A85        2.11448   0.01178   0.00000   0.03745   0.03745   2.15192
   A86        2.09286  -0.01140   0.00000  -0.04147  -0.04147   2.05139
   A87        2.07585  -0.00038   0.00000   0.00402   0.00402   2.07987
   A88        2.11477   0.00028   0.00000   0.00115   0.00115   2.11592
   A89        2.09363   0.00447   0.00000   0.01845   0.01845   2.11208
   A90        2.07478  -0.00475   0.00000  -0.01959  -0.01959   2.05519
    D1        0.00008   0.00001   0.00000   0.00007   0.00007   0.00014
    D2        3.14109   0.00002   0.00000   0.00022   0.00023   3.14132
    D3       -3.14117  -0.00001   0.00000  -0.00009  -0.00009  -3.14127
    D4       -0.00015   0.00000   0.00000   0.00007   0.00007  -0.00009
    D5        3.13894   0.00004   0.00000   0.00049   0.00049   3.13942
    D6       -0.00140   0.00000   0.00000   0.00007   0.00007  -0.00133
    D7       -0.00208   0.00002   0.00000   0.00031   0.00031  -0.00176
    D8        3.14078  -0.00001   0.00000  -0.00011  -0.00010   3.14067
    D9       -3.13977  -0.00003   0.00000  -0.00040  -0.00040  -3.14018
   D10        0.00001   0.00001   0.00000   0.00015   0.00015   0.00015
   D11        0.00055   0.00000   0.00000   0.00000   0.00000   0.00055
   D12        3.14033   0.00004   0.00000   0.00055   0.00055   3.14088
   D13        3.13516   0.00009   0.00000   0.00123   0.00123   3.13639
   D14       -0.00380   0.00002   0.00000   0.00037   0.00038  -0.00342
   D15       -0.00463   0.00004   0.00000   0.00066   0.00066  -0.00397
   D16        3.13960  -0.00002   0.00000  -0.00020  -0.00019   3.13941
   D17       -3.13800  -0.00005   0.00000  -0.00075  -0.00076  -3.13876
   D18        0.00043   0.00001   0.00000   0.00015   0.00015   0.00058
   D19        0.00094   0.00001   0.00000   0.00007   0.00007   0.00101
   D20        3.13937   0.00007   0.00000   0.00097   0.00098   3.14035
   D21        3.13134   0.00014   0.00000   0.00190   0.00189   3.13324
   D22       -0.00623   0.00004   0.00000   0.00069   0.00069  -0.00554
   D23       -0.00710   0.00006   0.00000   0.00095   0.00095  -0.00615
   D24        3.13851  -0.00003   0.00000  -0.00026  -0.00025   3.13826
   D25       -3.13656  -0.00014   0.00000  -0.00184  -0.00184  -3.13840
   D26        0.00056  -0.00005   0.00000  -0.00057  -0.00057  -0.00001
   D27        0.00090  -0.00005   0.00000  -0.00064  -0.00063   0.00026
   D28        3.13801   0.00004   0.00000   0.00064   0.00064   3.13865
   D29       -0.01215  -0.00000   0.00000  -0.00013  -0.00013  -0.01228
   D30        3.12898   0.00005   0.00000   0.00065   0.00065   3.12963
   D31        3.13381  -0.00010   0.00000  -0.00138  -0.00138   3.13244
   D32       -0.00824  -0.00004   0.00000  -0.00060  -0.00059  -0.00884
   D33        3.13713   0.00004   0.00000   0.00061   0.00061   3.13774
   D34       -0.00413  -0.00001   0.00000  -0.00017  -0.00017  -0.00430
   D35       -0.00397  -0.00002   0.00000  -0.00022  -0.00022  -0.00419
   D36        3.13795  -0.00007   0.00000  -0.00100  -0.00100   3.13696
   D37       -0.01467  -0.00002   0.00000  -0.00034  -0.00034  -0.01501
   D38        3.13160  -0.00009   0.00000  -0.00136  -0.00136   3.13024
   D39        3.12661   0.00003   0.00000   0.00041   0.00041   3.12701
   D40       -0.01031  -0.00004   0.00000  -0.00062  -0.00062  -0.01092
   D41       -3.13720  -0.00018   0.00000  -0.00228  -0.00228  -3.13947
   D42       -0.00004  -0.00010   0.00000  -0.00128  -0.00128  -0.00132
   D43       -0.00051  -0.00010   0.00000  -0.00119  -0.00119  -0.00169
   D44        3.13665  -0.00002   0.00000  -0.00018  -0.00019   3.13647
   D45       -0.01316  -0.00000   0.00000  -0.00006  -0.00006  -0.01322
   D46        3.12929   0.00001   0.00000   0.00015   0.00015   3.12943
   D47        3.13264  -0.00007   0.00000  -0.00098  -0.00099   3.13165
   D48       -0.00810  -0.00005   0.00000  -0.00077  -0.00078  -0.00888
   D49        3.13975  -0.00004   0.00000  -0.00049  -0.00049   3.13926
   D50       -0.00343  -0.00005   0.00000  -0.00057  -0.00057  -0.00399
   D51       -0.00274  -0.00006   0.00000  -0.00070  -0.00070  -0.00344
   D52        3.13727  -0.00006   0.00000  -0.00078  -0.00078   3.13649
   D53       -0.01580  -0.00002   0.00000  -0.00037  -0.00037  -0.01617
   D54        3.12856  -0.00004   0.00000  -0.00063  -0.00063   3.12793
   D55        3.12731  -0.00001   0.00000  -0.00028  -0.00028   3.12702
   D56       -0.01152  -0.00003   0.00000  -0.00054  -0.00055  -0.01206
   D57       -3.14099  -0.00007   0.00000  -0.00084  -0.00084   3.14135
   D58       -0.00151  -0.00006   0.00000  -0.00077  -0.00077  -0.00228
   D59       -0.00229  -0.00005   0.00000  -0.00056  -0.00056  -0.00285
   D60        3.13719  -0.00004   0.00000  -0.00049  -0.00049   3.13670
   D61       -0.01152   0.00001   0.00000   0.00011   0.00011  -0.01141
   D62        3.13237  -0.00004   0.00000  -0.00057  -0.00057   3.13180
   D63        3.13208   0.00001   0.00000   0.00005   0.00005   3.13213
   D64       -0.00722  -0.00004   0.00000  -0.00063  -0.00063  -0.00785
   D65       -3.13966  -0.00007   0.00000  -0.00099  -0.00099  -3.14065
   D66       -0.00076  -0.00002   0.00000  -0.00018  -0.00018  -0.00094
   D67       -0.00042  -0.00002   0.00000  -0.00029  -0.00029  -0.00071
   D68        3.13847   0.00004   0.00000   0.00051   0.00052   3.13899
   D69        3.13101   0.00014   0.00000   0.00202   0.00201   3.13302
   D70       -0.00791   0.00007   0.00000   0.00109   0.00110  -0.00681
   D71       -0.00796   0.00008   0.00000   0.00121   0.00121  -0.00675
   D72        3.13631   0.00000   0.00000   0.00029   0.00029   3.13660
   D73       -3.13867  -0.00004   0.00000  -0.00063  -0.00064  -3.13931
   D74       -0.00008   0.00003   0.00000   0.00037   0.00037   0.00029
   D75        0.00023   0.00002   0.00000   0.00026   0.00026   0.00049
   D76        3.13882   0.00009   0.00000   0.00126   0.00127   3.14009
   D77        3.13083   0.00015   0.00000   0.00215   0.00214   3.13297
   D78       -0.00780   0.00007   0.00000   0.00110   0.00110  -0.00670
   D79       -0.00777   0.00007   0.00000   0.00110   0.00110  -0.00666
   D80        3.13679  -0.00001   0.00000   0.00005   0.00006   3.13685
   D81       -3.13829  -0.00005   0.00000  -0.00080  -0.00081  -3.13910
   D82        0.00027   0.00002   0.00000   0.00022   0.00022   0.00049
   D83        0.00033   0.00002   0.00000   0.00021   0.00021   0.00054
   D84        3.13889   0.00009   0.00000   0.00123   0.00124   3.14013
   D85        3.13186   0.00014   0.00000   0.00194   0.00194   3.13379
   D86       -0.00704   0.00006   0.00000   0.00101   0.00101  -0.00603
   D87       -0.00672   0.00005   0.00000   0.00088   0.00088  -0.00584
[...]
 ,0.00000062,-0.00000084,0.00000072,0.00000104,-0.00000040,0.00000117,0
 .00000099,-0.00000103,-0.00000024,-0.00000211,-0.00000250,0.00000035,0
 .00000262,-0.00000155,0.00000539,0.00000166,0.00000440,-0.00003231,0.0
 0001195,0.00000518,-0.00009231,0.00006466,0.00018640,0.00010245,-0.000
 23348,0.00049761,0.00053134,0.00463301,-0.00033217,0.11315688,-0.00000
 071,0.00000021,-0.00000011,0.00000048,-0.00000067,0.00000056,-0.000000
 38,0.00000049,-0.00000056,0.00000026,-0.00000069,0.00000067,-0.0000002
 1,0.00000045,-0.00000063,0.00000016,-0.00000072,0.00000076,-0.00000010
 ,0.00000041,-0.00000065,0.00000010,-0.00000095,0.00000101,-0.00000016,
 0.00000032,-0.00000053,0.00000047,0.00000056,-0.00000126,-0.00000035,-
 0.00000045,0.00000052,-0.00000006,-0.00000105,0.00000128,-0.00000011,0
 .00000026,-0.00000065,0.00000032,0.00000073,-0.00000172,-0.00000018,-0
 .00000072,0.00000064,-0.00000059,-0.00000143,0.00000178,0.00000015,-0.
 00000021,-0.00000064,-0.00000028,0.00000151,-0.00000132,0.00000059,-0.
 00000223,0.00000149,-0.00000346,-0.00000187,-0.00000434,0.00000249,-0.
 00000327,0.00000287,0.00000133,0.00001863,0.00000663,0.00000449,-0.000
 01205,0.00000187,-0.00004184,-0.00005834,-0.00004439,0.00002296,0.0000
 1364,0.00002183,0.00006562,0.00023663,0.00008793,0.00022650,-0.0000806
 3,-0.00013570,-0.00355617,-0.00399773,-0.00293399,-0.01000672,-0.00186
 856,0.01711253,-0.03411467,-0.07172354,0.08388748,0.00000005,0.0000000
 5,0.00000003,-0.00000002,0.00000014,-0.00000010,0.00000002,0.00000008,
 0.,-0.00000004,0.00000017,-0.00000010,0.00000003,0.00000010,0.,-0.0000
 0005,0.00000020,-0.00000012,0.00000004,0.00000012,-0.00000001,-0.00000
 014,0.00000026,-0.00000012,0.00000014,0.00000004,0.00000008,-0.0000001
 5,0.00000008,0.00000019,0.00000014,0.00000016,0.00000001,-0.00000016,0
 .00000031,-0.00000009,0.00000017,0.00000010,0.00000010,-0.00000010,0.0
 0000017,0.00000024,0.00000018,0.00000033,0.00000001,-0.00000020,0.0000
 0047,-0.00000011,0.00000029,0.00000032,0.00000019,0.00000006,0.0000003
 6,0.00000037,0.00000012,0.00000039,0.00000015,0.00000030,0.00000067,0.
 00000060,0.00000065,0.00000180,0.00000080,0.00000088,0.00000113,0.0000
 0073,-0.00000273,-0.00000486,-0.00000462,0.00000356,0.00000194,0.00000
 118,0.00000070,0.00001454,0.00000160,0.00003624,-0.00001028,-0.0000023
 1,0.00007166,0.00031474,-0.00001129,0.00073334,0.00014262,-0.00025393,
 0.00478291,0.00507951,0.00610496,0.03723534,0.06679935,-0.00000019,0.0
 0000002,-0.00000005,0.00000014,-0.00000012,0.00000004,-0.00000022,0.00
 000011,-0.00000009,0.00000024,-0.00000015,0.,-0.00000036,0.00000011,-0
 .00000003,0.00000042,-0.00000018,-0.00000008,-0.00000055,0.00000009,0.
 00000012,0.00000074,-0.00000022,-0.00000024,-0.00000074,0.00000070,-0.
 00000065,0.00000118,-0.00000076,0.00000022,-0.00000172,0.00000005,0.00
 000082,0.00000207,-0.00000044,-0.00000080,-0.00000202,0.00000172,-0.00
 000155,0.00000299,-0.00000202,0.00000087,-0.00000424,0.00000019,0.0000
 0218,0.00000526,-0.00000110,-0.00000230,-0.00000526,0.00000428,-0.0000
 0378,0.00000751,-0.00000454,0.00000267,-0.00000890,0.00000652,-0.00000
 537,0.00001202,-0.00001034,0.00000219,-0.00001552,0.00001215,-0.000009
 19,0.00002823,-0.00000507,0.00001244,-0.00003265,0.00002111,-0.0000204
 4,0.00003405,-0.00006940,-0.00001716,-0.00006155,0.00006716,-0.0000277
 9,0.00014361,0.00007236,0.00010908,-0.00049176,0.00005171,0.00017787,0
 .00048433,-0.00430135,-0.00087622,0.01178038,0.00692439,-0.01416534,0.
 11017036,0.08505299,-0.24172680,0.00000002,0.,0.00000005,0.,0.,0.00000
 003,0.00000002,0.,0.00000006,0.00000002,0.,0.00000004,0.00000002,0.,0.
 00000007,0.00000003,0.00000001,0.00000004,0.00000002,0.00000001,0.0000
 0007,0.00000005,0.,0.00000005,-0.00000002,0.00000003,0.00000010,-0.000
 00008,0.00000005,0.00000012,0.00000007,0.00000001,0.00000013,0.0000000
 9,0.,0.00000008,-0.00000004,0.00000005,0.00000018,-0.00000010,0.000000
 10,0.00000020,0.00000012,0.00000006,0.00000022,0.00000021,0.,0.0000001
 6,-0.00000010,0.00000013,0.00000043,-0.00000015,0.00000018,0.00000043,
 -0.00000006,-0.00000003,0.00000063,-0.00000033,0.00000038,0.00000079,0
 .00000023,0.00000053,0.00000158,-0.00000085,0.00000065,0.00000150,-0.0
 0000152,-0.00000503,0.00000005,-0.00000304,0.00000181,0.00000337,0.000
 00592,0.00000096,0.00001037,-0.00003321,0.00001395,0.00000380,0.000175
 31,-0.00000658,0.00023078,-0.00103341,0.00039643,0.00036075,-0.0005694
 2,0.00620540,0.00152502,-0.12028504,-0.09632351,0.25489401,-0.00000614
 ,0.00000285,-0.00000034,0.00000457,-0.00000580,0.00000511,-0.00000365,
 0.00000503,-0.00000467,0.00000308,-0.00000602,0.00000622,-0.00000264,0
 .00000488,-0.00000508,0.00000284,-0.00000629,0.00000691,-0.00000225,0.
 00000455,-0.00000495,0.00000351,-0.00000822,0.00000871,-0.00000347,0.0
 0000569,-0.00000561,0.00000807,0.00000361,-0.00000962,-0.00000776,-0.0
 0000230,0.00000758,0.00000615,-0.00000952,0.00000971,-0.00000660,0.000
 00887,-0.00000884,0.00001259,0.00000218,-0.00001163,-0.00001337,-0.000
 00281,0.00001283,0.00001208,-0.00001228,0.00001144,-0.00001332,0.00001
 423,-0.00001391,0.00001829,-0.00000373,-0.00000867,-0.00001930,0.00000
 598,0.00000371,0.00002554,-0.00000081,-0.00000731,-0.00002627,0.000008
 21,0.00000170,0.00002581,-0.00002498,-0.00002268,-0.00004098,0.0000204
 7,0.00000102,0.00008597,0.00007372,0.00003155,-0.00012511,0.00002566,-
 0.00000557,-0.00006693,-0.00033020,-0.00040329,-0.00054392,0.00013983,
 0.00029535,0.00230714,0.00412050,-0.00028080,-0.00940897,0.00260031,0.
 00500450,-0.30980338,0.08795556,0.04776519,0.00000024,-0.00000005,-0.0
 0000003,-0.00000029,0.00000092,-0.00000103,-0.00000002,0.00000016,-0.0
 0000016,-0.00000051,0.00000110,-0.00000114,-0.00000001,0.00000027,-0.0
 0000029,-0.00000061,0.00000128,-0.00000133,0.00000005,0.00000035,-0.00
 000050,-0.00000140,0.00000168,-0.00000140,0.00000086,-0.00000045,0.000
 00030,-0.00000194,-0.00000004,0.00000133,0.00000085,-0.00000004,-0.000
 00047,-0.00000169,0.00000166,-0.00000130,0.00000086,-0.00000049,0.0000
 0039,-0.00000224,0.00000001,0.00000158,0.00000101,0.00000019,-0.000000
 73,-0.00000216,0.00000214,-0.00000173,0.00000083,-0.00000068,0.0000006
 1,-0.00000211,-0.00000033,0.00000222,-0.00000037,-0.00000015,0.0000013
 9,-0.00000263,-0.00000072,0.00000333,-0.00000116,-0.00000119,0.0000011
 9,-0.00000284,-0.00000082,0.00000441,0.00000161,0.00000546,0.00000548,
 -0.00000258,-0.00000220,0.00000566,-0.00000780,-0.00002040,-0.00001213
 ,0.00001054,-0.00000360,0.00001525,0.00001106,0.00007616,-0.00003080,0
 .00028368,-0.00021825,-0.00003558,0.00013761,-0.00200997,-0.00155901,-
 0.00794114,0.00453695,-0.00030262,0.32510176,0.00000449,-0.00000226,0.
 00000021,-0.00000333,0.00000427,-0.00000386,0.00000263,-0.00000384,0.0
 0000354,-0.00000217,0.00000445,-0.00000477,0.00000179,-0.00000379,0.00
 000393,-0.00000188,0.00000465,-0.00000540,0.00000135,-0.00000358,0.000
 00397,-0.00000219,0.00000605,-0.00000683,0.00000220,-0.00000392,0.0000
 0374,-0.00000550,-0.00000335,0.00000754,0.00000491,0.00000146,-0.00000
 502,-0.00000338,0.00000700,-0.00000815,0.00000382,-0.00000573,0.000005
 58,-0.00000795,-0.00000331,0.00000971,0.00000761,0.00000168,-0.0000079
 4,-0.00000555,0.00000935,-0.00001044,0.00000676,-0.00000837,0.00000779
 ,-0.00001064,-0.00000397,0.00000803,0.00000979,0.00000078,-0.00000745,
 -0.00000720,0.00000457,0.00001775,0.00001018,-0.00000089,-0.00001231,-
 0.00002970,-0.00004945,-0.00000772,0.00002096,0.00000894,-0.00001426,0
 .00007138,0.00017146,0.00016646,0.00006230,-0.00004511,-0.00008585,-0.
 00036950,-0.00108771,-0.00032035,0.00089768,0.00014936,-0.00048127,0.0
 0305685,0.00563431,0.00740361,0.01918037,-0.00148246,-0.00390441,0.085
 68346,-0.06584209,-0.00259678,-0.00000015,0.00000010,0.00000005,0.0000
 0023,-0.00000063,0.00000078,0.00000004,-0.00000005,0.00000014,0.000000
 40,-0.00000076,0.00000088,0.00000003,-0.00000012,0.00000024,0.00000049
 ,-0.00000089,0.00000102,0.,-0.00000016,0.00000041,0.00000110,-0.000001
 19,0.00000109,-0.00000063,0.00000043,-0.00000015,0.00000158,0.00000011
 ,-0.00000095,-0.00000064,0.00000022,0.00000040,0.00000139,-0.00000116,
 0.00000104,-0.00000064,0.00000057,-0.00000017,0.00000197,0.00000012,-0
 .00000113,-0.00000078,0.00000028,0.00000064,0.00000188,-0.00000148,0.0
 0000139,-0.00000070,0.00000070,-0.00000035,0.00000202,0.00000060,-0.00
 000157,0.00000071,0.00000130,-0.00000034,0.00000269,0.00000104,-0.0000
 0248,0.,-0.00000086,-0.00000215,0.00000385,0.00000203,-0.00000293,0.00
 000656,0.00001509,0.00000752,0.00000439,0.00000214,-0.00000527,-0.0000
 2099,-0.00004662,-0.00002925,0.00000836,0.00002265,-0.00000220,-0.0000
 0346,0.00009442,0.00008203,0.00003435,-0.00015024,-0.00023443,-0.00217
 532,-0.00397674,-0.00320882,-0.00949079,0.00513622,0.00189439,-0.09695
 824,0.06144437,-0.00000310,0.00000146,-0.00000027,0.00000219,-0.000002
 94,0.00000264,-0.00000176,0.00000262,-0.00000256,0.00000133,-0.0000030
 9,0.00000332,-0.00000111,0.00000260,-0.00000293,0.00000102,-0.00000326
 ,0.00000382,-0.00000068,0.00000249,-0.00000307,0.00000103,-0.00000422,
 0.00000485,-0.00000121,0.00000222,-0.00000230,0.00000322,0.00000271,-0
 .00000560,-0.00000267,-0.00000100,0.00000268,0.00000112,-0.00000495,0.
 00000621,-0.00000172,0.00000285,-0.00000309,0.00000396,0.00000334,-0.0
 0000784,-0.00000329,-0.00000125,0.00000365,0.00000090,-0.00000603,0.00
 000917,-0.00000213,0.00000281,-0.00000355,0.00000227,0.00000340,-0.000
 01028,-0.00000238,-0.00000487,0.00000956,0.00000282,0.00001347,-0.0000
 1047,-0.00000141,-0.00001102,0.00001399,-0.00001529,-0.00001087,-0.000
 03944,0.00000024,-0.00001394,0.00003069,0.00003539,0.00016488,0.000022
 18,-0.00006358,-0.00006127,0.00006672,-0.00034138,-0.00034672,-0.00066
 895,-0.00090413,0.00002736,0.00078938,0.00140307,0.00668971,0.00007828
 ,-0.02123723,0.00722032,0.00700458,0.05136028,-0.00412055,-0.05909901,
 0.00000013,-0.00000002,0.00000002,-0.00000014,0.00000046,-0.00000049,0
 .,0.00000007,-0.00000004,-0.00000025,0.00000055,-0.00000055,0.,0.00000
 012,-0.00000009,-0.00000031,0.00000065,-0.00000064,0.00000005,0.000000
 16,-0.00000019,-0.00000074,0.00000088,-0.00000068,0.00000049,-0.000000
 22,0.00000018,-0.00000114,0.00000004,0.00000074,0.00000055,-0.00000008
 ,-0.00000013,-0.00000097,0.00000092,-0.00000062,0.00000056,-0.00000025
 ,0.00000024,-0.00000148,0.00000013,0.00000095,0.00000080,0.,-0.0000001
 6,-0.00000138,0.00000126,-0.00000081,0.00000067,-0.00000039,0.00000031
 ,-0.00000148,0.,0.00000145,0.00000006,0.00000022,0.00000098,-0.0000020
 7,-0.00000018,0.00000231,-0.00000070,-0.00000134,0.00000039,-0.0000029
 7,0.00000020,0.00000349,0.00000374,0.00000827,0.00000704,-0.00000477,-
 0.00000084,0.00000521,-0.00001121,-0.00002964,-0.00001955,-0.00000364,
 0.00000582,0.00001804,0.00009526,0.00002860,0.00003560,-0.00043512,-0.
 00006511,0.00011121,-0.00129701,-0.00331966,-0.00080187,0.02189972,-0.
 00751841,-0.00048575,-0.05047191,0.00134145,0.05293079,-0.28443029,0.1
 1949021,-0.01267055,-0.01571383,0.01159947,-0.00397696,0.00077313,0.00
 071901,0.00535094,-0.00072645,0.00070697,-0.00039243,-0.00019219,-0.00
 053452,-0.00000874,-0.00013862,0.00005411,-0.00003573,0.00006651,0.000
 03614,0.00008730,-0.00005335,-0.00000112,0.00003569,0.00003098,-0.0000
 1127,-0.00003705,-0.00001842,0.00002743,-0.00002698,0.00001709,-0.0000
 2262,0.00002458,-0.00002029,-0.00000524,0.00002021,0.00001901,0.000006
 79,-0.00002249,-0.00000827,0.00001286,-0.00001498,0.00000660,-0.000015
 26,0.00001950,-0.00000942,-0.00000378,0.00001236,0.00001135,0.00000704
 ,-0.00001936,-0.00000591,-0.00000329,0.00000906,0.00000803,0.00000481,
 -0.00001298,-0.00000617,-0.00000318,0.00000911,0.00000752,0.00000413,-
 0.00001174,-0.00000605,-0.00000270,0.00000827,0.00000724,0.00000349,-0
 .00001046,-0.00000601,-0.00000226,0.00000756,0.00000707,0.00000292,-0.
 00000943,-0.00000612,-0.00000184,0.00000697,0.00000706,0.00000233,-0.0
 0000847,-0.00000700,-0.00000117,0.00000650,0.00000822,0.00000102,-0.00
 000716,-0.00000784,0.00000256,0.00000112,-0.00032117,0.00001101,0.0015
 2390,0.00014749,-0.00207548,-0.00133729,0.00017679,-0.00009032,-0.0001
 4877,0.00001584,-0.00000377,0.00007944,0.00001348,0.00001310,-0.000010
 62,-0.00000623,-0.00001865,-0.00001357,-0.00000146,0.00000506,-0.00000
 538,0.00000516,0.00000638,0.00000314,-0.00000789,0.00000070,0.00000528
 ,0.00000117,-0.00000310,0.00000186,-0.00000358,0.00000371,-0.00000266,
 0.00000171,-0.00000016,-0.00000118,-0.00000436,0.,0.00000300,0.0000011
 4,-0.00000100,0.00000100,-0.00000273,0.00000269,-0.00000212,0.00000161
 ,-0.00000004,-0.00000066,-0.00000351,-0.00000031,0.00000297,-0.0000004
 1,-0.00000048,0.00000109,-0.00000210,-0.00000073,0.00000267,-0.0000004
 0,-0.00000027,0.00000084,-0.00000179,-0.00000063,0.00000228,-0.0000003
 2,-0.00000021,0.00000064,-0.00000154,-0.00000056,0.00000199,-0.0000002
 4,-0.00000016,0.00000048,-0.00000133,-0.00000050,0.00000174,-0.0000001
 6,-0.00000011,0.00000034,-0.00000115,-0.00000045,0.00000153,-0.0000001
 0,-0.00000005,0.00000019,-0.00000085,-0.00000047,0.00000135,0.00000029
 ,-0.00000010,0.,-0.00000102,0.00000076,-0.00000049,0.30038408,0.122033
 03,-0.09923839,0.02031982,-0.00697266,0.00653504,0.00090527,0.00190659
 ,0.00648869,0.00573657,-0.00013851,0.00042138,-0.00017698,-0.00049402,
 -0.00085270,-0.00049810,0.00001537,-0.00002457,-0.00007775,0.00003547,
 0.00016956,0.00015401,0.00002459,0.00000572,-0.00001608,-0.00003076,-0
 .00002163,-0.00003053,0.00000891,-0.00001031,0.00001060,-0.00000938,0.
 00000427,0.00000557,0.00000717,-0.00000016,-0.00000648,-0.00000524,0.0
 0000385,-0.00000092,0.00000291,-0.00000394,0.00000364,-0.00000378,0.00
 000065,0.00000031,0.00000276,0.00000020,-0.00000257,-0.00000240,0.0000
 0073,0.00000025,0.00000124,-0.00000108,0.00000057,-0.00000152,0.000000
 44,0.00000006,0.00000090,-0.00000064,0.00000012,-0.00000113,0.00000020
 ,0.00000026,0.00000069,-0.00000036,-0.00000010,-0.00000090,0.00000003,
 0.00000040,0.00000057,-0.00000018,-0.00000026,-0.00000075,-0.00000006,
 0.00000049,0.00000051,-0.00000007,-0.00000037,-0.00000067,-0.00000011,
 0.00000054,0.00000055,-0.00000002,-0.00000043,-0.00000073,-0.00000006,
 0.00000052,0.00000059,-0.00000032,-0.00000010,0.01572695,-0.00447412,-
 0.00006477,-0.00188997,-0.00344383,-0.00356829,-0.00037269,0.00001445,
 -0.00018548,0.00008538,0.00007800,0.00003774,-0.00000014,0.00001860,0.
 00000918,-0.00001769,-0.00004199,-0.00003025,-0.00000124,0.00000172,0.
 ,0.00000687,0.00001428,0.00001053,0.00000054,0.00000190,0.00000056,-0.
 00000006,-0.00000130,-0.00000200,-0.00000049,0.00000062,0.00000026,-0.
 00000013,-0.00000063,-0.00000038,0.00000018,0.00000039,-0.00000008,0.0
 0000039,0.00000057,0.,-0.00000005,0.00000018,0.00000019,0.00000004,0.0
 0000012,0.00000012,0.00000021,0.00000019,-0.00000013,0.00000014,0.0000
 0021,-0.00000008,0.00000019,0.00000017,-0.00000014,0.00000011,0.000000
 17,-0.00000007,0.00000017,0.00000013,-0.00000013,0.00000008,0.00000013
 ,-0.00000005,0.00000015,0.00000011,-0.00000012,0.00000006,0.00000010,-
 0.00000004,0.00000013,0.00000009,-0.00000012,0.00000005,0.00000007,-0.
 00000002,0.00000011,0.00000008,-0.00000011,0.00000003,0.00000006,-0.00
 000001,0.00000008,0.00000008,-0.00000010,0.,0.00000005,0.00000001,0.00
 000011,-0.00000003,0.00000005,-0.12991889,0.09435326,-0.01608933,0.021
 80631,-0.05103866,0.02100639,-0.00995117,0.00528612,0.00375182,0.00643
 145,0.00073622,0.00074492,-0.00067101,0.00069710,-0.00006227,-0.000474
 57,-0.00076284,0.00001493,-0.00010052,0.00005062,0.00008862,0.00015328
 ,0.00004135,0.00000108,-0.00000138,0.00000526,-0.00001044,-0.00004114,
 0.00000485,-0.00000041,-0.00000067,0.00000315,0.00000451,0.00001299,-0
 .00001767,0.00000128,0.00000109,-0.00000486,-0.00000342,-0.00000762,0.
 00001535,0.00000068,-0.00000263,0.00000366,0.00000076,0.00000683,-0.00
 001252,0.00000162,0.00000149,-0.00000396,-0.00000348,-0.00000530,0.000
 01080,0.00000165,0.00000307,-0.00000620,-0.00000275,-0.00000365,0.0000
 0733,0.00000225,0.00000243,-0.00000560,-0.00000293,-0.00000285,0.00000
 636,0.00000250,0.00000184,-0.00000477,-0.00000307,-0.00000222,0.000005
 46,0.00000266,0.00000139,-0.00000412,-0.00000315,-0.00000172,0.0000047
 5,0.00000281,0.00000103,-0.00000362,-0.00000324,-0.00000129,0.00000415
 ,0.00000328,0.00000061,-0.00000325,-0.00000383,-0.00000057,0.00000343,
 0.00000368,-0.00000126,-0.00000064,-0.01961801,0.00912154,0.00150751,-
 0.00158722,-0.00345969,-0.00133574,0.00023153,-0.00035087,0.00005135,-
 0.00004048,0.00008988,0.00004595,0.00000711,0.00000145,0.00001925,-0.0
 0001459,-0.00002966,-0.00002362,0.00000317,-0.00000364,0.00000426,0.00
 000240,0.00001100,0.00000903,0.00000586,0.00000033,-0.00000150,-0.0000
 0230,-0.00000024,-0.00000117,0.00000315,-0.00000209,0.00000184,-0.0000
 0144,-0.00000034,0.00000031,0.00000258,0.00000005,-0.00000130,-0.00000
 071,0.00000091,0.00000009,0.00000182,-0.00000135,0.00000124,-0.0000008
 7,0.00000022,0.00000040,0.00000191,0.00000022,-0.00000139,0.00000021,0
 .00000034,-0.00000035,0.00000109,0.00000044,-0.00000123,0.00000020,0.0
 0000020,-0.00000025,0.00000091,0.00000037,-0.00000105,0.00000016,0.000
 00016,-0.00000019,0.00000077,0.00000032,-0.00000091,0.00000012,0.00000
 012,-0.00000014,0.00000066,0.00000028,-0.00000079,0.00000009,0.0000000
 9,-0.00000010,0.00000056,0.00000025,-0.00000069,0.00000006,0.00000005,
 -0.00000005,0.00000041,0.00000025,-0.00000061,-0.00000012,0.00000008,0
 .00000003,0.00000048,-0.00000033,0.00000026,0.01155335,-0.02253460,0.0
 4471228\\0.00000099,0.00000121,-0.00000187,0.,-0.00000125,0.00000193,-
 0.00000235,0.00000220,-0.00000139,0.00000168,-0.00000222,0.00000206,-0
 .00000216,0.00000208,-0.00000122,0.00000139,-0.00000258,0.00000148,-0.
 00000177,0.00000222,-0.00000073,0.00000067,-0.00000062,-0.00000004,-0.
 00000065,0.00000078,-0.00000038,-0.00000011,-0.00000096,0.00000010,0.0
 0000175,-0.00000107,0.00000080,0.00000173,0.00000065,0.00000001,-0.000
 00129,-0.00000055,-0.00000132,-0.00000261,0.00000020,0.00000042,0.0000
 0103,-0.00000049,0.00000015,-0.00000044,-0.00000020,-0.00000041,0.0000
 0048,-0.00000121,0.00000090,-0.00000004,0.00000102,-0.00000315,-0.0000
 0024,-0.00000155,0.00000330,0.00000013,0.00000143,-0.00000304,-0.00000
 082,-0.00000141,0.00000236,0.00000127,0.00000073,-0.00000230,-0.000001
 73,-0.00000068,0.00000191,0.00000243,-0.00000007,-0.00000171,-0.000002
 53,-0.00000009,0.00000168,0.00000329,-0.00000043,-0.00000156,-0.000002
 79,-0.00000022,0.00000222,0.00000320,-0.00000010,-0.00000187,-0.000000
 78,-0.00000078,0.00000185,-0.00000014,0.00000155,-0.00000218,-0.000000
 36,-0.00000002,0.00000066,-0.00000050,0.00000057,-0.00000035,0.0000010
 3,-0.00000073,0.00000065,-0.00000096,0.00000096,-0.00000072,0.00000093
 ,-0.00000084,0.00000072,-0.00000081,0.00000085,-0.00000078,0.00000140,
 0.00000033,0.00000138,-0.00000061,0.00000013,-0.00000049,-0.00000015,-
 0.00000045,-0.00000030,-0.00000103,-0.00000056,-0.00000067,0.00000025,
 -0.00000031,0.00000006,0.00000001,0.00000060,0.00000043,-0.00000026,-0
 .00000058,-0.00000032,-0.00000033,0.00000046,0.00000030,0.00000104,0.0
 0000087,0.00000057,0.00000028,0.00000063,0.00000038,0.00000041,0.00000
 032,-0.00000040,-0.00000136,-0.00000093,0.00000033,0.00000086,0.000000
 39,-0.00000107,-0.00000096,0.,0.00000111,0.00000105,0.00000029,-0.0000
 0104,-0.00000104,0.00000009,0.00000096,0.00000119,0.00000018,-0.000000
 98,-0.00000112,0.00000022,0.00000077,0.00000130,0.00000004,-0.00000086
 ,-0.00000109,0.00000027,0.00000065,0.00000134,0.00000002,-0.00000089,-
 0.00000108,0.00000032,0.00000055,0.00000071,0.00000006,-0.00000051,0.0
 0000036,-0.00000022,0.00000045,-0.00000008,-0.00000025,0.00000065,-0.0
 0000005,-0.00000030,0.00000076\\\@


 BE CAREFUL NOT TO BECOME TOO GOOD OF A SONGBIRD OR 
 THEY'LL THROW YOU INTO A CAGE.

                                    -- SNOOPY TO WOODSTOCK
 Job cpu time:       0 days  1 hours 58 minutes 54.9 seconds.
 Elapsed time:       0 days  1 hours 58 minutes 55.4 seconds.
 File lengths (MBytes):  RWF=   2182 Int=      0 D2E=      0 Chk=     32 Scr=      1
 Normal termination of Gaussian 16 at Sun Oct 29 04:40:34 2023.
