 Entering Gaussian System, Link 0=g16
 Input=./com/15.com
 Output=./log/15.log
 Initial command:
 /home/shohei/gaussian/g16/l1.exe "/home/shohei/gaussian/scratch/Gau-14400.inp" -scrdir="/home/shohei/gaussian/scratch/"
 Entering Link 1 = /home/shohei/gaussian/g16/l1.exe PID=     14402.
  
 Copyright (c) 1988-2017, Gaussian, Inc.  All Rights Reserved.
  
 This is part of the Gaussian(R) 16 program.  It is based on
 the Gaussian(R) 09 system (copyright 2009, Gaussian, Inc.),
 the Gaussian(R) 03 system (copyright 2003, Gaussian, Inc.),
 the Gaussian(R) 98 system (copyright 1998, Gaussian, Inc.),
 the Gaussian(R) 94 system (copyright 1995, Gaussian, Inc.),
 the Gaussian 92(TM) system (copyright 1992, Gaussian, Inc.),
 the Gaussian 90(TM) system (copyright 1990, Gaussian, Inc.),
 the Gaussian 88(TM) system (copyright 1988, Gaussian, Inc.),
 the Gaussian 86(TM) system (copyright 1986, Carnegie Mellon
 University), and the Gaussian 82(TM) system (copyright 1983,
 Carnegie Mellon University). Gaussian is a federally registered
 trademark of Gaussian, Inc.
  
 This software contains proprietary and confidential information,
 including trade secrets, belonging to Gaussian, Inc.
  
 This software is provided under written license and may be
 used, copied, transmitted, or stored only in accord with that
 written license.
  
 The following legend is applicable only to US Government
 contracts under FAR:
  
                    RESTRICTED RIGHTS LEGEND
  
 Use, reproduction and disclosure by the US Government is
 subject to restrictions as set forth in subparagraphs (a)
 and (c) of the Commercial Computer Software - Restricted
 Rights clause in FAR 52.227-19.
  
 Gaussian, Inc.
 340 Quinnipiac St., Bldg. 40, Wallingford CT 06492
  
  
 ---------------------------------------------------------------
 Warning -- This program may not be used in any manner that
 competes with the business of Gaussian, Inc. or will provide
 assistance to any competitor of Gaussian, Inc.  The licensee
 of this program is prohibited from giving any competitor of
 Gaussian, Inc. access to this program.  By using this program,
 the user acknowledges that Gaussian, Inc. is engaged in the
 business of creating and licensing software in the field of
 computational chemistry and represents and warrants to the
 licensee that it is not a competitor of Gaussian, Inc. and that
 it will not use this program in any manner prohibited above.
 ---------------------------------------------------------------
  

 Cite this work as:
 Gaussian 16, Revision B.01,
 M. J. Frisch, G. W. Trucks, H. B. Schlegel, G. E. Scuseria, 
 M. A. Robb, J. R. Cheeseman, G. Scalmani, V. Barone, 
 G. A. Petersson, H. Nakatsuji, X. Li, M. Caricato, A. V. Marenich, 
 J. Bloino, B. G. Janesko, R. Gomperts, B. Mennucci, H. P. Hratchian, 
 J. V. Ortiz, A. F. Izmaylov, J. L. Sonnenberg, D. Williams-Young, 
 F. Ding, F. Lipparini, F. Egidi, J. Goings, B. Peng, A. Petrone, 
 T. Henderson, D. Ranasinghe, V. G. Zakrzewski, J. Gao, N. Rega, 
 G. Zheng, W. Liang, M. Hada, M. Ehara, K. Toyota, R. Fukuda, 
 J. Hasegawa, M. Ishida, T. Nakajima, Y. Honda, O. Kitao, H. Nakai, 
 T. Vreven, K. Throssell, J. A. Montgomery, Jr., J. E. Peralta, 
 F. Ogliaro, M. J. Bearpark, J. J. Heyd, E. N. Brothers, K. N. Kudin, 
 V. N. Staroverov, T. A. Keith, R. Kobayashi, J. Normand, 
 K. Raghavachari, A. P. Rendell, J. C. Burant, S. S. Iyengar, 
 J. Tomasi, M. Cossi, J. M. Millam, M. Klene, C. Adamo, R. Cammi, 
 J. W. Ochterski, R. L. Martin, K. Morokuma, O. Farkas, 
 J. B. Foresman, and D. J. Fox, Gaussian, Inc., Wallingford CT, 2016.
 
 ******************************************
 Gaussian 16:  EM64L-G16RevB.01 20-Dec-2017
                 9-Nov-2023 
 ******************************************
 %chk=checkpoint.chk
 %nprocshared=4
 Will use up to    4 processors via shared memory.
 ---------------------------
 # B3LYP/6-31G(d,p) OPT FREQ
 ---------------------------
 1/18=20,19=15,26=3,38=1/1,3;
 2/9=110,12=2,17=6,18=5,40=1/2;
 3/5=1,6=6,7=101,11=2,25=1,30=1,71=1,74=-5/1,2,3;
 4//1;
 5/5=2,38=5/2;
 6/7=2,8=2,9=2,10=2,28=1/1;
 7//1,2,3,16;
 1/18=20,19=15,26=3/3(2);
 2/9=110/2;
 99//99;
 2/9=110/2;
 3/5=1,6=6,7=101,11=2,25=1,30=1,71=1,74=-5/1,2,3;
 4/5=5,16=3,69=1/1;
 5/5=2,38=5/2;
 7//1,2,3,16;
 1/18=20,19=15,26=3/3(-5);
 2/9=110/2;
 6/7=2,8=2,9=2,10=2,19=2,28=1/1;
 99/9=1/99;
 ------
 15poly
 ------
 Symbolic Z-matrix:
 Charge =  0 Multiplicity = 1
 C                    -2.38167   1.11948   0.01761 
 C                    -1.16629   1.67027  -0.02328 
 C                     0.05202   0.83582   0.01926 
 C                     1.26952   1.39288  -0.02208 
 C                     2.48876   0.5589    0.02037 
 C                     3.70604   1.1165   -0.02115 
 C                     4.9258    0.28327   0.02116 
 C                     6.14255   0.84196  -0.0206 
 C                     7.36333   0.01022   0.0215 
 C                     8.57917   0.57084  -0.02053 
 C                     9.80158  -0.25849   0.02135 
 C                     11.01609   0.30501  -0.02084 
 C                     12.24076  -0.52097   0.02085 
 C                     13.45356   0.04624  -0.02132 
 C                     14.68089  -0.77571   0.02028 
 C                     15.8918  -0.20439  -0.02163 
 C                     17.12183  -1.02224   0.01997 
 C                     18.331   -0.44713  -0.02151 
 C                     19.56322  -1.2616    0.02012 
 C                     20.77114  -0.68381  -0.02095 
 C                     22.00464  -1.49635   0.02066 
 C                     23.21206  -0.9175   -0.02027 
 C                     24.44572  -1.72984   0.02116 
 C                     25.65338  -1.15154  -0.02001 
 C                     26.88634  -1.96504   0.02112 
 C                     28.09467  -1.38825  -0.02059 
 C                     29.32663  -2.20341   0.0202 
 C                     30.5356  -1.62817  -0.02203 
 C                     31.76607  -2.44475   0.01854 
 C                     32.9733  -1.87645  -0.02358 
 H                    -3.26408   1.75034  -0.0148 
 H                    -2.50892   0.0429    0.08327 
 H                    -1.0806    2.75164  -0.08897 
 H                    -0.04615  -0.24544   0.08504 
 H                     1.36668   2.47424  -0.08789 
 H                     2.39173  -0.52243   0.0862 
 H                     3.8028    2.19788  -0.08701 
 H                     4.82964  -0.79813   0.08706 
 H                     6.23816   1.92345  -0.08654 
 H                     7.26872  -1.07131   0.08746 
 H                     8.67287   1.6525   -0.0865 
 H                     9.70936  -1.34022   0.08732 
 H                     11.10707   1.3869   -0.08678 
 H                     12.15166  -1.60297   0.08672 
 H                     13.54116   1.12842  -0.08711 
 H                     14.59536  -1.85802   0.08592 
 H                     15.97581   0.87808  -0.08714 
 H                     17.03972  -2.10484   0.08527 
 H                     18.41186   0.6356   -0.08669 
 H                     19.4837  -2.34442   0.08509 
 H                     20.84994   0.39909  -0.08584 
 H                     21.92637  -2.57927   0.08539 
 H                     23.29022   0.16545  -0.08502 
 H                     24.36729  -2.81275   0.08587 
 H                     25.73219  -0.06864  -0.08482 
 H                     26.80678  -3.04787   0.08599 
 H                     28.17481  -0.30547  -0.08559 
 H                     29.2459  -3.28616   0.0853 
 H                     30.61767  -0.54553  -0.08724 
 H                     31.69617  -3.52729   0.08371 
 H                     33.08495  -0.79813  -0.08882 
 H                     33.86472  -2.4946    0.00734 
 

 GradGradGradGradGradGradGradGradGradGradGradGradGradGradGradGradGradGrad
 Berny optimization.
 Initialization pass.
                           ----------------------------
                           !    Initial Parameters    !
                           ! (Angstroms and Degrees)  !
 --------------------------                            --------------------------
 ! Name  Definition              Value          Derivative Info.                !
 --------------------------------------------------------------------------------
 ! R1    R(1,2)                  1.335          estimate D2E/DX2                !
 ! R2    R(1,31)                 1.0852         estimate D2E/DX2                !
 ! R3    R(1,32)                 1.0861         estimate D2E/DX2                !
 ! R4    R(2,3)                  1.4773         estimate D2E/DX2                !
 ! R5    R(2,33)                 1.0868         estimate D2E/DX2                !
 ! R6    R(3,4)                  1.3395         estimate D2E/DX2                !
 ! R7    R(3,34)                 1.0877         estimate D2E/DX2                !
 ! R8    R(4,5)                  1.4778         estimate D2E/DX2                !
 ! R9    R(4,35)                 1.0877         estimate D2E/DX2                !
 ! R10   R(5,6)                  1.3396         estimate D2E/DX2                !
 ! R11   R(5,36)                 1.0877         estimate D2E/DX2                !
 ! R12   R(6,7)                  1.4778         estimate D2E/DX2                !
 ! R13   R(6,37)                 1.0877         estimate D2E/DX2                !
 ! R14   R(7,8)                  1.3395         estimate D2E/DX2                !
 ! R15   R(7,38)                 1.0877         estimate D2E/DX2                !
 ! R16   R(8,9)                  1.4778         estimate D2E/DX2                !
 ! R17   R(8,39)                 1.0877         estimate D2E/DX2                !
 ! R18   R(9,10)                 1.3395         estimate D2E/DX2                !
 ! R19   R(9,40)                 1.0877         estimate D2E/DX2                !
 ! R20   R(10,11)                1.4778         estimate D2E/DX2                !
 ! R21   R(10,41)                1.0877         estimate D2E/DX2                !
 ! R22   R(11,12)                1.3395         estimate D2E/DX2                !
 ! R23   R(11,42)                1.0877         estimate D2E/DX2                !
 ! R24   R(12,13)                1.4778         estimate D2E/DX2                !
 ! R25   R(12,43)                1.0877         estimate D2E/DX2                !
 ! R26   R(13,14)                1.3395         estimate D2E/DX2                !
 ! R27   R(13,44)                1.0877         estimate D2E/DX2                !
 ! R28   R(14,15)                1.4777         estimate D2E/DX2                !
 ! R29   R(14,45)                1.0877         estimate D2E/DX2                !
 ! R30   R(15,16)                1.3396         estimate D2E/DX2                !
 ! R31   R(15,46)                1.0877         estimate D2E/DX2                !
 ! R32   R(16,17)                1.4777         estimate D2E/DX2                !
 ! R33   R(16,47)                1.0877         estimate D2E/DX2                !
 ! R34   R(17,18)                1.3396         estimate D2E/DX2                !
 ! R35   R(17,48)                1.0877         estimate D2E/DX2                !
 ! R36   R(18,19)                1.4777         estimate D2E/DX2                !
 ! R37   R(18,49)                1.0877         estimate D2E/DX2                !
 ! R38   R(19,20)                1.3396         estimate D2E/DX2                !
 ! R39   R(19,50)                1.0877         estimate D2E/DX2                !
 ! R40   R(20,21)                1.4777         estimate D2E/DX2                !
 ! R41   R(20,51)                1.0877         estimate D2E/DX2                !
 ! R42   R(21,22)                1.3396         estimate D2E/DX2                !
 ! R43   R(21,52)                1.0877         estimate D2E/DX2                !
 ! R44   R(22,23)                1.4777         estimate D2E/DX2                !
 ! R45   R(22,53)                1.0877         estimate D2E/DX2                !
 ! R46   R(23,24)                1.3396         estimate D2E/DX2                !
 ! R47   R(23,54)                1.0877         estimate D2E/DX2                !
 ! R48   R(24,25)                1.4777         estimate D2E/DX2                !
 ! R49   R(24,55)                1.0877         estimate D2E/DX2                !
 ! R50   R(25,26)                1.3396         estimate D2E/DX2                !
 ! R51   R(25,56)                1.0877         estimate D2E/DX2                !
 ! R52   R(26,27)                1.4778         estimate D2E/DX2                !
 ! R53   R(26,57)                1.0877         estimate D2E/DX2                !
 ! R54   R(27,28)                1.3395         estimate D2E/DX2                !
 ! R55   R(27,58)                1.0877         estimate D2E/DX2                !
 ! R56   R(28,29)                1.4773         estimate D2E/DX2                !
 ! R57   R(28,59)                1.0877         estimate D2E/DX2                !
 ! R58   R(29,30)                1.335          estimate D2E/DX2                !
 ! R59   R(29,60)                1.0868         estimate D2E/DX2                !
 ! R60   R(30,61)                1.086          estimate D2E/DX2                !
 ! R61   R(30,62)                1.0852         estimate D2E/DX2                !
 ! A1    A(2,1,31)             119.9678         estimate D2E/DX2                !
 ! A2    A(2,1,32)             121.1648         estimate D2E/DX2                !
 ! A3    A(31,1,32)            118.8673         estimate D2E/DX2                !
 ! A4    A(1,2,3)              121.1227         estimate D2E/DX2                !
 ! A5    A(1,2,33)             118.9588         estimate D2E/DX2                !
 ! A6    A(3,2,33)             119.9185         estimate D2E/DX2                !
 ! A7    A(2,3,4)              120.9155         estimate D2E/DX2                !
 ! A8    A(2,3,34)             119.2626         estimate D2E/DX2                !
 ! A9    A(4,3,34)             119.8219         estimate D2E/DX2                !
 ! A10   A(3,4,5)              120.9511         estimate D2E/DX2                !
 ! A11   A(3,4,35)             119.7687         estimate D2E/DX2                !
 ! A12   A(5,4,35)             119.2802         estimate D2E/DX2                !
 ! A13   A(4,5,6)              120.9263         estimate D2E/DX2                !
 ! A14   A(4,5,36)             119.2868         estimate D2E/DX2                !
 ! A15   A(6,5,36)             119.787          estimate D2E/DX2                !
 ! A16   A(5,6,7)              120.9617         estimate D2E/DX2                !
 ! A17   A(5,6,37)             119.772          estimate D2E/DX2                !
 ! A18   A(7,6,37)             119.2663         estimate D2E/DX2                !
 ! A19   A(6,7,8)              120.9092         estimate D2E/DX2                !
 ! A20   A(6,7,38)             119.2975         estimate D2E/DX2                !
 ! A21   A(8,7,38)             119.7933         estimate D2E/DX2                !
 ! A22   A(7,8,9)              120.9794         estimate D2E/DX2                !
 ! A23   A(7,8,39)             119.7639         estimate D2E/DX2                !
 ! A24   A(9,8,39)             119.2567         estimate D2E/DX2                !
 ! A25   A(8,9,10)             120.8878         estimate D2E/DX2                !
 ! A26   A(8,9,40)             119.3099         estimate D2E/DX2                !
 ! A27   A(10,9,40)            119.8024         estimate D2E/DX2                !
 ! A28   A(9,10,11)            121.001          estimate D2E/DX2                !
 ! A29   A(9,10,41)            119.7546         estimate D2E/DX2                !
 ! A30   A(11,10,41)           119.2444         estimate D2E/DX2                !
 ! A31   A(10,11,12)           120.8651         estimate D2E/DX2                !
 ! A32   A(10,11,42)           119.3223         estimate D2E/DX2                !
 ! A33   A(12,11,42)           119.8126         estimate D2E/DX2                !
 ! A34   A(11,12,13)           121.0218         estimate D2E/DX2                !
 ! A35   A(11,12,43)           119.7464         estimate D2E/DX2                !
 ! A36   A(13,12,43)           119.2319         estimate D2E/DX2                !
 ! A37   A(12,13,14)           120.8473         estimate D2E/DX2                !
 ! A38   A(12,13,44)           119.3312         estimate D2E/DX2                !
 ! A39   A(14,13,44)           119.8215         estimate D2E/DX2                !
 ! A40   A(13,14,15)           121.0345         estimate D2E/DX2                !
 ! A41   A(13,14,45)           119.7423         estimate D2E/DX2                !
 ! A42   A(15,14,45)           119.2231         estimate D2E/DX2                !
 ! A43   A(14,15,16)           120.8419         estimate D2E/DX2                !
 ! A44   A(14,15,46)           119.3324         estimate D2E/DX2                !
 ! A45   A(16,15,46)           119.8257         estimate D2E/DX2                !
 ! A46   A(15,16,17)           121.0319         estimate D2E/DX2                !
 ! A47   A(15,16,47)           119.7453         estimate D2E/DX2                !
 ! A48   A(17,16,47)           119.2227         estimate D2E/DX2                !
 ! A49   A(16,17,18)           120.8546         estimate D2E/DX2                !
 ! A50   A(16,17,48)           119.3231         estimate D2E/DX2                !
 ! A51   A(18,17,48)           119.8223         estimate D2E/DX2                !
 ! A52   A(17,18,19)           121.0106         estimate D2E/DX2                !
 ! A53   A(17,18,49)           119.7561         estimate D2E/DX2                !
 ! A54   A(19,18,49)           119.2332         estimate D2E/DX2                !
 ! A55   A(18,19,20)           120.8852         estimate D2E/DX2                !
 ! A56   A(18,19,50)           119.3042         estimate D2E/DX2                !
 ! A57   A(20,19,50)           119.8106         estimate D2E/DX2                !
 ! A58   A(19,20,21)           120.9747         estimate D2E/DX2                !
 ! A59   A(19,20,51)           119.7723         estimate D2E/DX2                !
 ! A60   A(21,20,51)           119.2531         estimate D2E/DX2                !
 ! A61   A(20,21,22)           120.9252         estimate D2E/DX2                !
 ! A62   A(20,21,52)           119.2811         estimate D2E/DX2                !
 ! A63   A(22,21,52)           119.7937         estimate D2E/DX2                !
 ! A64   A(21,22,23)           120.9357         estimate D2E/DX2                !
 ! A65   A(21,22,53)           119.7883         estimate D2E/DX2                !
 ! A66   A(23,22,53)           119.2759         estimate D2E/DX2                !
 ! A67   A(22,23,24)           120.9606         estimate D2E/DX2                !
 ! A68   A(22,23,54)           119.262          estimate D2E/DX2                !
 ! A69   A(24,23,54)           119.7774         estimate D2E/DX2                !
 ! A70   A(23,24,25)           120.9087         estimate D2E/DX2                !
 ! A71   A(23,24,55)           119.7981         estimate D2E/DX2                !
 ! A72   A(25,24,55)           119.2932         estimate D2E/DX2                !
 ! A73   A(24,25,26)           120.9781         estimate D2E/DX2                !
 ! A74   A(24,25,56)           119.2539         estimate D2E/DX2                !
 ! A75   A(26,25,56)           119.768          estimate D2E/DX2                !
 ! A76   A(25,26,27)           120.9039         estimate D2E/DX2                !
 ! A77   A(25,26,57)           119.7986         estimate D2E/DX2                !
 ! A78   A(27,26,57)           119.2975         estimate D2E/DX2                !
 ! A79   A(26,27,28)           120.9744         estimate D2E/DX2                !
 ! A80   A(26,27,58)           119.2661         estimate D2E/DX2                !
 ! A81   A(28,27,58)           119.7594         estimate D2E/DX2                !
 ! A82   A(27,28,29)           120.8971         estimate D2E/DX2                !
 ! A83   A(27,28,59)           119.83           estimate D2E/DX2                !
 ! A84   A(29,28,59)           119.2729         estimate D2E/DX2                !
 ! A85   A(28,29,30)           121.1335         estimate D2E/DX2                !
 ! A86   A(28,29,60)           119.9125         estimate D2E/DX2                !
 ! A87   A(30,29,60)           118.9539         estimate D2E/DX2                !
 ! A88   A(29,30,61)           121.1675         estimate D2E/DX2                !
 ! A89   A(29,30,62)           119.9627         estimate D2E/DX2                !
 ! A90   A(61,30,62)           118.8698         estimate D2E/DX2                !
 ! D1    D(31,1,2,3)          -179.9994         estimate D2E/DX2                !
 ! D2    D(31,1,2,33)           -0.0002         estimate D2E/DX2                !
 ! D3    D(32,1,2,3)             0.0002         estimate D2E/DX2                !
 ! D4    D(32,1,2,33)          179.9994         estimate D2E/DX2                !
 ! D5    D(1,2,3,4)            179.9969         estimate D2E/DX2                !
 ! D6    D(1,2,3,34)            -0.0016         estimate D2E/DX2                !
 ! D7    D(33,2,3,4)            -0.0023         estimate D2E/DX2                !
 ! D8    D(33,2,3,34)          179.9992         estimate D2E/DX2                !
 ! D9    D(2,3,4,5)           -179.9975         estimate D2E/DX2                !
 ! D10   D(2,3,4,35)             0.0002         estimate D2E/DX2                !
 ! D11   D(34,3,4,5)             0.0009         estimate D2E/DX2                !
 ! D12   D(34,3,4,35)          179.9986         estimate D2E/DX2                !
 ! D13   D(3,4,5,6)            179.993          estimate D2E/DX2                !
 ! D14   D(3,4,5,36)            -0.004          estimate D2E/DX2                !
 ! D15   D(35,4,5,6)            -0.0047         estimate D2E/DX2                !
 ! D16   D(35,4,5,36)          179.9983         estimate D2E/DX2                !
 ! D17   D(4,5,6,7)           -179.9957         estimate D2E/DX2                !
 ! D18   D(4,5,6,37)             0.0009         estimate D2E/DX2                !
 ! D19   D(36,5,6,7)             0.0013         estimate D2E/DX2                !
 ! D20   D(36,5,6,37)          179.9979         estimate D2E/DX2                !
 ! D21   D(5,6,7,8)            179.9908         estimate D2E/DX2                !
 ! D22   D(5,6,7,38)            -0.0057         estimate D2E/DX2                !
 ! D23   D(37,6,7,8)            -0.0058         estimate D2E/DX2                !
 ! D24   D(37,6,7,38)          179.9978         estimate D2E/DX2                !
 ! D25   D(6,7,8,9)           -179.9952         estimate D2E/DX2                !
 ! D26   D(6,7,8,39)             0.0014         estimate D2E/DX2                !
 ! D27   D(38,7,8,9)             0.0013         estimate D2E/DX2                !
 ! D28   D(38,7,8,39)          179.9979         estimate D2E/DX2                !
 ! D29   D(7,8,9,10)           179.9925         estimate D2E/DX2                !
 ! D30   D(7,8,9,40)            -0.005          estimate D2E/DX2                !
 ! D31   D(39,8,9,10)           -0.0041         estimate D2E/DX2                !
 ! D32   D(39,8,9,40)          179.9984         estimate D2E/DX2                !
 ! D33   D(8,9,10,11)         -179.997          estimate D2E/DX2                !
 ! D34   D(8,9,10,41)            0.0015         estimate D2E/DX2                !
 ! D35   D(40,9,10,11)           0.0005         estimate D2E/DX2                !
 ! D36   D(40,9,10,41)         179.9991         estimate D2E/DX2                !
 ! D37   D(9,10,11,12)         179.9997         estimate D2E/DX2                !
 ! D38   D(9,10,11,42)          -0.001          estimate D2E/DX2                !
 ! D39   D(41,10,11,12)          0.0011         estimate D2E/DX2                !
 ! D40   D(41,10,11,42)       -179.9996         estimate D2E/DX2                !
 ! D41   D(10,11,12,13)        179.9985         estimate D2E/DX2                !
 ! D42   D(10,11,12,43)          0.0009         estimate D2E/DX2                !
 ! D43   D(42,11,12,13)         -0.0008         estimate D2E/DX2                !
 ! D44   D(42,11,12,43)       -179.9984         estimate D2E/DX2                !
 ! D45   D(11,12,13,14)       -179.9883         estimate D2E/DX2                !
 ! D46   D(11,12,13,44)          0.0065         estimate D2E/DX2                !
 ! D47   D(43,12,13,14)          0.0093         estimate D2E/DX2                !
 ! D48   D(43,12,13,44)       -179.9959         estimate D2E/DX2                !
 ! D49   D(12,13,14,15)        179.9926         estimate D2E/DX2                !
 ! D50   D(12,13,14,45)         -0.0004         estimate D2E/DX2                !
 ! D51   D(44,13,14,15)         -0.0021         estimate D2E/DX2                !
 ! D52   D(44,13,14,45)       -179.9951         estimate D2E/DX2                !
 ! D53   D(13,14,15,16)       -179.9752         estimate D2E/DX2                !
 ! D54   D(13,14,15,46)          0.0156         estimate D2E/DX2                !
 ! D55   D(45,14,15,16)          0.0179         estimate D2E/DX2                !
 ! D56   D(45,14,15,46)       -179.9913         estimate D2E/DX2                !
 ! D57   D(14,15,16,17)        179.9882         estimate D2E/DX2                !
 ! D58   D(14,15,16,47)         -0.0019         estimate D2E/DX2                !
 ! D59   D(46,15,16,17)         -0.0025         estimate D2E/DX2                !
 ! D60   D(46,15,16,47)       -179.9926         estimate D2E/DX2                !
 ! D61   D(15,16,17,18)       -179.9677         estimate D2E/DX2                !
 ! D62   D(15,16,17,48)          0.0222         estimate D2E/DX2                !
 ! D63   D(47,16,17,18)          0.0225         estimate D2E/DX2                !
 ! D64   D(47,16,17,48)       -179.9876         estimate D2E/DX2                !
 ! D65   D(16,17,18,19)        179.9887         estimate D2E/DX2                !
 ! D66   D(16,17,18,49)         -0.0025         estimate D2E/DX2                !
 ! D67   D(48,17,18,19)         -0.0011         estimate D2E/DX2                !
 ! D68   D(48,17,18,49)       -179.9924         estimate D2E/DX2                !
 ! D69   D(17,18,19,20)       -179.9722         estimate D2E/DX2                !
 ! D70   D(17,18,19,50)          0.0216         estimate D2E/DX2                !
 ! D71   D(49,18,19,20)          0.019          estimate D2E/DX2                !
 ! D72   D(49,18,19,50)       -179.9871         estimate D2E/DX2                !
 ! D73   D(18,19,20,21)        179.9956         estimate D2E/DX2                !
 ! D74   D(18,19,20,51)         -0.0015         estimate D2E/DX2                !
 ! D75   D(50,19,20,21)          0.0018         estimate D2E/DX2                !
 ! D76   D(50,19,20,51)       -179.9953         estimate D2E/DX2                !
 ! D77   D(19,20,21,22)       -179.99           estimate D2E/DX2                !
 ! D78   D(19,20,21,52)          0.0119         estimate D2E/DX2                !
 ! D79   D(51,20,21,22)          0.0071         estimate D2E/DX2                !
 ! D80   D(51,20,21,52)       -179.991          estimate D2E/DX2                !
 ! D81   D(20,21,22,23)       -179.993          estimate D2E/DX2                !
 ! D82   D(20,21,22,53)          0.0013         estimate D2E/DX2                !
 ! D83   D(52,21,22,23)          0.0051         estimate D2E/DX2                !
 ! D84   D(52,21,22,53)        179.9994         estimate D2E/DX2                !
 ! D85   D(21,22,23,24)        179.9862         estimate D2E/DX2                !
 ! D86   D(21,22,23,54)         -0.0035         estimate D2E/DX2                !
 ! D87   D(53,22,23,24)         -0.0081         estimate D2E/DX2                !
 ! D88   D(53,22,23,54)       -179.9978         estimate D2E/DX2                !
 ! D89   D(22,23,24,25)       -179.9828         estimate D2E/DX2                !
 ! D90   D(22,23,24,55)          0.0046         estimate D2E/DX2                !
 ! D91   D(54,23,24,25)          0.0069         estimate D2E/DX2                !
 ! D92   D(54,23,24,55)        179.9943         estimate D2E/DX2                !
 ! D93   D(23,24,25,26)        179.9693         estimate D2E/DX2                !
 ! D94   D(23,24,25,56)         -0.0164         estimate D2E/DX2                !
 ! D95   D(55,24,25,26)         -0.0182         estimate D2E/DX2                !
 ! D96   D(55,24,25,56)        179.9962         estimate D2E/DX2                !
 ! D97   D(24,25,26,27)       -179.9799         estimate D2E/DX2                !
 ! D98   D(24,25,26,57)          0.0065         estimate D2E/DX2                !
 ! D99   D(56,25,26,27)          0.0057         estimate D2E/DX2                !
 ! D100  D(56,25,26,57)        179.9921         estimate D2E/DX2                !
 ! D101  D(25,26,27,28)        179.9693         estimate D2E/DX2                !
 ! D102  D(25,26,27,58)         -0.0192         estimate D2E/DX2                !
 ! D103  D(57,26,27,28)         -0.0173         estimate D2E/DX2                !
 ! D104  D(57,26,27,58)        179.9943         estimate D2E/DX2                !
 ! D105  D(26,27,28,29)       -179.9863         estimate D2E/DX2                !
 ! D106  D(26,27,28,59)          0.0055         estimate D2E/DX2                !
 ! D107  D(58,27,28,29)          0.0021         estimate D2E/DX2                !
 ! D108  D(58,27,28,59)        179.9939         estimate D2E/DX2                !
 ! D109  D(27,28,29,30)        179.9842         estimate D2E/DX2                !
 ! D110  D(27,28,29,60)         -0.011          estimate D2E/DX2                !
 ! D111  D(59,28,29,30)         -0.0075         estimate D2E/DX2                !
 ! D112  D(59,28,29,60)        179.9972         estimate D2E/DX2                !
 ! D113  D(28,29,30,61)          0.0015         estimate D2E/DX2                !
 ! D114  D(28,29,30,62)       -179.9962         estimate D2E/DX2                !
 ! D115  D(60,29,30,61)        179.9968         estimate D2E/DX2                !
 ! D116  D(60,29,30,62)         -0.0009         estimate D2E/DX2                !
 --------------------------------------------------------------------------------
 Trust Radius=3.00D-01 FncErr=1.00D-07 GrdErr=1.00D-06 EigMax=2.50D+02 EigMin=1.00D-04
 Number of steps in this run=    277 maximum allowed number of steps=    372.
 GradGradGradGradGradGradGradGradGradGradGradGradGradGradGradGradGradGrad

 Stoichiometry    C30H32
 Framework group  C1[X(C30H32)]
 Deg. of freedom   180
 Full point group                 C1      NOp   1
 Largest Abelian subgroup         C1      NOp   1
 Largest concise Abelian subgroup C1      NOp   1
                         Standard orientation:                         
 ---------------------------------------------------------------------
 Center     Atomic      Atomic             Coordinates (Angstroms)
 Number     Number       Type             X           Y           Z
 ---------------------------------------------------------------------
      1          6           0      -17.740575    0.229601   -0.002257
      2          6           0      -16.586877   -0.442087   -0.001851
      3          6           0      -15.290688    0.266648   -0.001975
      4          6           0      -14.135516   -0.411504   -0.001504
      5          6           0      -12.838447    0.296663   -0.001573
      6          6           0      -11.683542   -0.382007   -0.000962
      7          6           0      -10.386041    0.325354   -0.000935
      8          6           0       -9.231774   -0.354367   -0.000138
      9          6           0       -7.933409    0.351403   -0.000003
     10          6           0       -6.780237   -0.330158    0.000944
     11          6           0       -5.480486    0.373041    0.001147
     12          6           0       -4.328930   -0.311255    0.002102
     13          6           0       -3.027277    0.388379    0.002274
     14          6           0       -1.877795   -0.299431    0.002994
     15          6           0       -0.573892    0.395930    0.003006
     16          6           0        0.573296   -0.295755    0.003229
     17          6           0        1.879464    0.395260    0.002982
     18          6           0        3.024532   -0.299988    0.002558
     19          6           0        4.332549    0.387453    0.002060
     20          6           0        5.476110   -0.310311    0.001079
     21          6           0        6.785191    0.375084    0.000483
     22          6           0        7.928150   -0.323667   -0.000698
     23          6           0        9.237378    0.361498   -0.001138
     24          6           0       10.380623   -0.336746   -0.002043
     25          6           0       11.689277    0.349628   -0.002102
     26          6           0       12.833344   -0.347218   -0.002392
     27          6           0       14.141164    0.340880   -0.002006
     28          6           0       15.286028   -0.354521   -0.001679
     29          6           0       16.592504    0.335122   -0.000990
     30          6           0       17.736335   -0.353206   -0.000347
     31          1           0      -18.682062   -0.310118   -0.002147
     32          1           0      -17.758709    1.315506   -0.002693
     33          1           0      -16.610572   -1.528579   -0.001410
     34          1           0      -15.279421    1.354290   -0.002431
     35          1           0      -14.147793   -1.499146   -0.001025
     36          1           0      -12.826045    1.384268   -0.002081
     37          1           0      -11.696228   -1.469634   -0.000419
     38          1           0      -10.372762    1.412941   -0.001514
     39          1           0       -9.245611   -1.441984    0.000476
     40          1           0       -7.918563    1.438965   -0.000644
     41          1           0       -6.795990   -1.417753    0.001600
     42          1           0       -5.463254    1.460564    0.000498
     43          1           0       -4.347419   -1.398808    0.002722
     44          1           0       -3.006903    1.475848    0.001721
     45          1           0       -1.899673   -1.386919    0.003466
     46          1           0       -0.549942    1.483330    0.002677
     47          1           0        0.547820   -1.383159    0.003435
     48          1           0        1.906844    1.482584    0.002980
     49          1           0        2.995897   -1.387310    0.002434
     50          1           0        4.362531    1.474712    0.002396
     51          1           0        5.445400   -1.397574    0.000666
     52          1           0        6.816432    1.462309    0.001046
     53          1           0        7.896807   -1.410911   -0.001250
     54          1           0        9.268457    1.448730   -0.000548
     55          1           0       10.349937   -1.424008   -0.002539
     56          1           0       11.719218    1.436894   -0.001670
     57          1           0       12.803983   -1.434513   -0.002694
     58          1           0       14.169929    1.428200   -0.001799
     59          1           0       15.258601   -1.441878   -0.001785
     60          1           0       16.632034    1.421158   -0.000924
     61          1           0       17.738780   -1.439246   -0.000336
     62          1           0       18.685505    0.172902    0.000216
 ---------------------------------------------------------------------
 Rotational constants (GHZ):           4.7918290           0.0113222           0.0112955
 Standard basis: 6-31G(d,p) (6D, 7F)
 There are   610 symmetry adapted cartesian basis functions of A   symmetry.
 There are   610 symmetry adapted basis functions of A   symmetry.
   610 basis functions,  1064 primitive gaussians,   610 cartesian basis functions
   106 alpha electrons      106 beta electrons
       nuclear repulsion energy      1866.1872257520 Hartrees.
 NAtoms=   62 NActive=   62 NUniq=   62 SFac= 1.00D+00 NAtFMM=   60 NAOKFM=T Big=T
 Integral buffers will be    131072 words long.
 Raffenetti 2 integral format.
 Two-electron integral symmetry is turned on.
 One-electron integrals computed using PRISM.
 NBasis=   610 RedAO= T EigKep=  1.10D-03  NBF=   610
 NBsUse=   610 1.00D-06 EigRej= -1.00D+00 NBFU=   610
 ExpMin= 1.61D-01 ExpMax= 3.05D+03 ExpMxC= 4.57D+02 IAcc=3 IRadAn=         5 AccDes= 0.00D+00
 Harris functional with IExCor=  402 and IRadAn=       5 diagonalized for initial guess.
 HarFok:  IExCor=  402 AccDes= 0.00D+00 IRadAn=         5 IDoV= 1 UseB2=F ITyADJ=14
 ICtDFT=  3500011 ScaDFX=  1.000000  1.000000  1.000000  1.000000
 FoFCou: FMM=F IPFlag=           0 FMFlag=      100000 FMFlg1=        2001
         NFxFlg=           0 DoJE=T BraDBF=F KetDBF=T FulRan=T
         wScrn=  0.000000 ICntrl=       500 IOpCl=  0 I1Cent=   200000004 NGrid=           0
         NMat0=    1 NMatS0=      1 NMatT0=    0 NMatD0=    1 NMtDS0=    0 NMtDT0=    0
 Petite list used in FoFCou.
 Requested convergence on RMS density matrix=1.00D-08 within 128 cycles.
 Requested convergence on MAX density matrix=1.00D-06.
 Requested convergence on             energy=1.00D-06.
 No special actions if energy rises.
 Integral accuracy reduced to 1.0D-05 until final iterations.
 Initial convergence to 1.0D-05 achieved.  Increase integral accuracy.
 SCF Done:  E(RB3LYP) =  -1162.30553098     A.U. after   13 cycles
            NFock= 13  Conv=0.58D-08     -V/T= 2.0100

 **********************************************************************

            Population analysis using the SCF Density.

 **********************************************************************

 Orbital symmetries:
       Occupied  (A) (A) (A) (A) (A) (A) (A) (A) (A) (A) (A) (A)
                 (A) (A) (A) (A) (A) (A) (A) (A) (A) (A) (A) (A)
                 (A) (A) (A) (A) (A) (A) (A) (A) (A) (A) (A) (A)
                 (A) (A) (A) (A) (A) (A) (A) (A) (A) (A) (A) (A)
                 (A) (A) (A) (A) (A) (A) (A) (A) (A) (A) (A) (A)
                 (A) (A) (A) (A) (A) (A) (A) (A) (A) (A) (A) (A)
                 (A) (A) (A) (A) (A) (A) (A) (A) (A) (A) (A) (A)
                 (A) (A) (A) (A) (A) (A) (A) (A) (A) (A) (A) (A)
                 (A) (A) (A) (A) (A) (A) (A) (A) (A) (A)
       Virtual   (A) (A) (A) (A) (A) (A) (A) (A) (A) (A) (A) (A)
                 (A) (A) (A) (A) (A) (A) (A) (A) (A) (A) (A) (A)
                 (A) (A) (A) (A) (A) (A) (A) (A) (A) (A) (A) (A)
                 (A) (A) (A) (A) (A) (A) (A) (A) (A) (A) (A) (A)
                 (A) (A) (A) (A) (A) (A) (A) (A) (A) (A) (A) (A)
                 (A) (A) (A) (A) (A) (A) (A) (A) (A) (A) (A) (A)
                 (A) (A) (A) (A) (A) (A) (A) (A) (A) (A) (A) (A)
                 (A) (A) (A) (A) (A) (A) (A) (A) (A) (A) (A) (A)
                 (A) (A) (A) (A) (A) (A) (A) (A) (A) (A) (A) (A)
                 (A) (A) (A) (A) (A) (A) (A) (A) (A) (A) (A) (A)
                 (A) (A) (A) (A) (A) (A) (A) (A) (A) (A) (A) (A)
                 (A) (A) (A) (A) (A) (A) (A) (A) (A) (A) (A) (A)
                 (A) (A) (A) (A) (A) (A) (A) (A) (A) (A) (A) (A)
                 (A) (A) (A) (A) (A) (A) (A) (A) (A) (A) (A) (A)
                 (A) (A) (A) (A) (A) (A) (A) (A) (A) (A) (A) (A)
                 (A) (A) (A) (A) (A) (A) (A) (A) (A) (A) (A) (A)
                 (A) (A) (A) (A) (A) (A) (A) (A) (A) (A) (A) (A)
                 (A) (A) (A) (A) (A) (A) (A) (A) (A) (A) (A) (A)
                 (A) (A) (A) (A) (A) (A) (A) (A) (A) (A) (A) (A)
                 (A) (A) (A) (A) (A) (A) (A) (A) (A) (A) (A) (A)
                 (A) (A) (A) (A) (A) (A) (A) (A) (A) (A) (A) (A)
                 (A) (A) (A) (A) (A) (A) (A) (A) (A) (A) (A) (A)
                 (A) (A) (A) (A) (A) (A) (A) (A) (A) (A) (A) (A)
                 (A) (A) (A) (A) (A) (A) (A) (A) (A) (A) (A) (A)
                 (A) (A) (A) (A) (A) (A) (A) (A) (A) (A) (A) (A)
                 (A) (A) (A) (A) (A) (A) (A) (A) (A) (A) (A) (A)
                 (A) (A) (A) (A) (A) (A) (A) (A) (A) (A) (A) (A)
                 (A) (A) (A) (A) (A) (A) (A) (A) (A) (A) (A) (A)
                 (A) (A) (A) (A) (A) (A) (A) (A) (A) (A) (A) (A)
                 (A) (A) (A) (A) (A) (A) (A) (A) (A) (A) (A) (A)
                 (A) (A) (A) (A) (A) (A) (A) (A) (A) (A) (A) (A)
                 (A) (A) (A) (A) (A) (A) (A) (A) (A) (A) (A) (A)
                 (A) (A) (A) (A) (A) (A) (A) (A) (A) (A) (A) (A)
                 (A) (A) (A) (A) (A) (A) (A) (A) (A) (A) (A) (A)
                 (A) (A) (A) (A) (A) (A) (A) (A) (A) (A) (A) (A)
                 (A) (A) (A) (A) (A) (A) (A) (A) (A) (A) (A) (A)
                 (A) (A) (A) (A) (A) (A) (A) (A) (A) (A) (A) (A)
                 (A) (A) (A) (A) (A) (A) (A) (A) (A) (A) (A) (A)
                 (A) (A) (A) (A) (A) (A) (A) (A) (A) (A) (A) (A)
                 (A) (A) (A) (A) (A) (A) (A) (A) (A) (A) (A) (A)
                 (A) (A) (A) (A) (A) (A) (A) (A) (A) (A) (A) (A)
                 (A) (A) (A) (A) (A) (A) (A) (A) (A) (A) (A) (A)
 The electronic state is 1-A.
 Alpha  occ. eigenvalues --  -10.19133 -10.19127 -10.19106 -10.19099 -10.19095
 Alpha  occ. eigenvalues --  -10.19092 -10.19088 -10.19086 -10.19083 -10.19081
 Alpha  occ. eigenvalues --  -10.19078 -10.19075 -10.19071 -10.19067 -10.19061
 Alpha  occ. eigenvalues --  -10.19016 -10.19008 -10.19004 -10.19001 -10.18998
 Alpha  occ. eigenvalues --  -10.18995 -10.18992 -10.18988 -10.18984 -10.18981
 Alpha  occ. eigenvalues --  -10.18976 -10.18931 -10.18922 -10.17912 -10.17906
 Alpha  occ. eigenvalues --   -0.82938  -0.82724  -0.82363  -0.81862  -0.81224
 Alpha  occ. eigenvalues --   -0.80453  -0.79550  -0.78520  -0.77368  -0.76101
 Alpha  occ. eigenvalues --   -0.74731  -0.73279  -0.71788  -0.70353  -0.69202
 Alpha  occ. eigenvalues --   -0.63613  -0.62275  -0.60525  -0.58622  -0.57061
 Alpha  occ. eigenvalues --   -0.56874  -0.56763  -0.56547  -0.56154  -0.55640
 Alpha  occ. eigenvalues --   -0.55229  -0.54976  -0.54552  -0.54131  -0.54080
 Alpha  occ. eigenvalues --   -0.48605  -0.48368  -0.48024  -0.47407  -0.46834
 Alpha  occ. eigenvalues --   -0.46328  -0.45249  -0.45112  -0.44361  -0.43160
 Alpha  occ. eigenvalues --   -0.42093  -0.41491  -0.40974  -0.40294  -0.39568
 Alpha  occ. eigenvalues --   -0.39316  -0.38474  -0.38436  -0.37785  -0.37767
 Alpha  occ. eigenvalues --   -0.37462  -0.37362  -0.37234  -0.36812  -0.36450
 Alpha  occ. eigenvalues --   -0.36089  -0.35624  -0.35290  -0.35012  -0.34960
 Alpha  occ. eigenvalues --   -0.34544  -0.34141  -0.33894  -0.33372  -0.33063
 Alpha  occ. eigenvalues --   -0.32839  -0.32055  -0.30873  -0.29519  -0.27999
 Alpha  occ. eigenvalues --   -0.26322  -0.24503  -0.22568  -0.20576  -0.18656
 Alpha  occ. eigenvalues --   -0.17109
 Alpha virt. eigenvalues --   -0.07436  -0.05816  -0.03715  -0.01464   0.00766
 Alpha virt. eigenvalues --    0.02872   0.04775   0.06413   0.07741   0.08211
 Alpha virt. eigenvalues --    0.08540   0.08734   0.09071   0.09398   0.09775
 Alpha virt. eigenvalues --    0.09784   0.09932   0.09955   0.09969   0.10661
 Alpha virt. eigenvalues --    0.11682   0.12579   0.12633   0.12897   0.13769
 Alpha virt. eigenvalues --    0.13815   0.14075   0.14163   0.14265   0.14565
 Alpha virt. eigenvalues --    0.14633   0.14941   0.15171   0.15493   0.15543
 Alpha virt. eigenvalues --    0.15616   0.15764   0.16436   0.16967   0.17350
 Alpha virt. eigenvalues --    0.18379   0.19555   0.19813   0.20002   0.20625
 Alpha virt. eigenvalues --    0.21122   0.21208   0.24980   0.26255   0.28093
 Alpha virt. eigenvalues --    0.30143   0.30504   0.30683   0.31625   0.31961
 Alpha virt. eigenvalues --    0.32364   0.33512   0.34039   0.34823   0.34978
 Alpha virt. eigenvalues --    0.36119   0.36288   0.36422   0.37044   0.37086
 Alpha virt. eigenvalues --    0.37534   0.38351   0.40147   0.41292   0.41488
 Alpha virt. eigenvalues --    0.41898   0.41902   0.42087   0.42398   0.44414
 Alpha virt. eigenvalues --    0.44884   0.47325   0.48367   0.51076   0.51651
 Alpha virt. eigenvalues --    0.51838   0.52162   0.52182   0.52626   0.53235
 Alpha virt. eigenvalues --    0.53990   0.54179   0.54887   0.54995   0.55921
 Alpha virt. eigenvalues --    0.56671   0.56959   0.57061   0.57108   0.57440
 Alpha virt. eigenvalues --    0.58296   0.58608   0.58707   0.58790   0.58824
 Alpha virt. eigenvalues --    0.59000   0.59131   0.59261   0.59490   0.59745
 Alpha virt. eigenvalues --    0.59998   0.60199   0.60626   0.60812   0.61285
 Alpha virt. eigenvalues --    0.61403   0.61847   0.62438   0.62926   0.63258
 Alpha virt. eigenvalues --    0.63395   0.63731   0.64795   0.65138   0.65319
 Alpha virt. eigenvalues --    0.65565   0.65859   0.66310   0.66706   0.67569
 Alpha virt. eigenvalues --    0.67893   0.68330   0.68928   0.69793   0.69866
 Alpha virt. eigenvalues --    0.70616   0.70751   0.72887   0.73186   0.75028
 Alpha virt. eigenvalues --    0.75166   0.76486   0.76516   0.78595   0.78718
 Alpha virt. eigenvalues --    0.79014   0.79546   0.80334   0.81344   0.82462
 Alpha virt. eigenvalues --    0.83328   0.83762   0.84432   0.84495   0.84626
 Alpha virt. eigenvalues --    0.84850   0.85152   0.85517   0.85634   0.85909
 Alpha virt. eigenvalues --    0.86283   0.86600   0.86784   0.87017   0.87081
 Alpha virt. eigenvalues --    0.87351   0.87606   0.87838   0.87956   0.88211
 Alpha virt. eigenvalues --    0.89120   0.89708   0.90003   0.91094   0.91183
 Alpha virt. eigenvalues --    0.91495   0.91985   0.92017   0.92659   0.93590
 Alpha virt. eigenvalues --    0.93809   0.95525   0.96081   0.97584   0.99261
 Alpha virt. eigenvalues --    0.99867   1.02544   1.02566   1.03333   1.03446
 Alpha virt. eigenvalues --    1.04087   1.04493   1.04769   1.05779   1.06074
 Alpha virt. eigenvalues --    1.06268   1.06859   1.07927   1.08245   1.09297
 Alpha virt. eigenvalues --    1.09823   1.10333   1.10678   1.12216   1.13077
 Alpha virt. eigenvalues --    1.15137   1.16131   1.17110   1.17781   1.20262
 Alpha virt. eigenvalues --    1.21305   1.23433   1.25172   1.26599   1.28051
 Alpha virt. eigenvalues --    1.29450   1.29469   1.29907   1.29975   1.30022
 Alpha virt. eigenvalues --    1.30561   1.30594   1.30702   1.31207   1.31381
 Alpha virt. eigenvalues --    1.31390   1.31634   1.31834   1.32128   1.32792
 Alpha virt. eigenvalues --    1.32924   1.33018   1.33613   1.33659   1.33683
 Alpha virt. eigenvalues --    1.34241   1.34655   1.34901   1.35828   1.36547
 Alpha virt. eigenvalues --    1.36860   1.37482   1.38533   1.39665   1.40863
 Alpha virt. eigenvalues --    1.42120   1.42768   1.43427   1.44765   1.46105
 Alpha virt. eigenvalues --    1.47412   1.47851   1.48642   1.49748   1.50294
 Alpha virt. eigenvalues --    1.50683   1.50748   1.51401   1.51868   1.52103
 Alpha virt. eigenvalues --    1.52287   1.52639   1.54384   1.54386   1.76355
 Alpha virt. eigenvalues --    1.76454   1.76588   1.76604   1.76615   1.76679
 Alpha virt. eigenvalues --    1.76877   1.76913   1.77302   1.77418   1.77960
 Alpha virt. eigenvalues --    1.78044   1.78638   1.78654   1.82266   1.83195
 Alpha virt. eigenvalues --    1.84699   1.86262   1.86268   1.86699   1.89098
 Alpha virt. eigenvalues --    1.91339   1.91785   1.92068   1.92071   1.92369
 Alpha virt. eigenvalues --    1.92941   1.92951   1.93655   1.94241   1.94248
 Alpha virt. eigenvalues --    1.94637   1.95049   1.95566   1.95690   1.96779
 Alpha virt. eigenvalues --    1.96862   1.97534   1.98293   1.98339   2.00366
 Alpha virt. eigenvalues --    2.03046   2.03084   2.03741   2.05072   2.05517
 Alpha virt. eigenvalues --    2.07390   2.07735   2.08105   2.08106   2.09643
 Alpha virt. eigenvalues --    2.10117   2.10161   2.10834   2.11092   2.12233
 Alpha virt. eigenvalues --    2.13411   2.14585   2.16365   2.16486   2.17689
 Alpha virt. eigenvalues --    2.17737   2.17962   2.19190   2.19223   2.19280
 Alpha virt. eigenvalues --    2.20125   2.20577   2.21653   2.22065   2.22810
 Alpha virt. eigenvalues --    2.23609   2.23735   2.24041   2.24099   2.25202
 Alpha virt. eigenvalues --    2.26589   2.26846   2.28548   2.30307   2.31688
 Alpha virt. eigenvalues --    2.32113   2.33924   2.35637   2.37048   2.37464
 Alpha virt. eigenvalues --    2.37915   2.41604   2.41610   2.43335   2.44421
 Alpha virt. eigenvalues --    2.44563   2.45017   2.45609   2.46631   2.47651
 Alpha virt. eigenvalues --    2.48037   2.48172   2.48693   2.48787   2.49050
 Alpha virt. eigenvalues --    2.49753   2.50139   2.50418   2.51154   2.51377
 Alpha virt. eigenvalues --    2.51525   2.51966   2.52541   2.52832   2.53199
 Alpha virt. eigenvalues --    2.53732   2.54080   2.54252   2.54836   2.55178
 Alpha virt. eigenvalues --    2.56414   2.57106   2.57245   2.57685   2.58175
 Alpha virt. eigenvalues --    2.58861   2.59496   2.60210   2.61334   2.61903
 Alpha virt. eigenvalues --    2.62799   2.63322   2.63696   2.63960   2.64278
 Alpha virt. eigenvalues --    2.65858   2.66026   2.66619   2.67697   2.67990
 Alpha virt. eigenvalues --    2.68100   2.69167   2.69408   2.70204   2.70361
 Alpha virt. eigenvalues --    2.70765   2.70819   2.71021   2.71210   2.71584
 Alpha virt. eigenvalues --    2.72247   2.72488   2.73914   2.75767   2.76267
 Alpha virt. eigenvalues --    2.78937   2.79054   2.79736   2.82530   2.82992
 Alpha virt. eigenvalues --    2.85307   2.85718   2.86057   2.87711   2.87905
 Alpha virt. eigenvalues --    2.89763   2.91102   2.91275   2.91576   2.91846
 Alpha virt. eigenvalues --    2.91854   2.92227   2.92975   2.93154   2.93276
 Alpha virt. eigenvalues --    2.94122   2.94836   2.95886   2.96316   2.97470
 Alpha virt. eigenvalues --    2.97679   2.98759   2.98845   2.99669   2.99710
 Alpha virt. eigenvalues --    3.00121   3.00211   3.28041   3.28046   3.35187
 Alpha virt. eigenvalues --    3.35356   3.35665   3.36144   3.36831   3.37740
 Alpha virt. eigenvalues --    3.38830   3.40030   3.41324   3.42781   3.44498
 Alpha virt. eigenvalues --    3.46535   3.48891   3.51323   3.51518   3.53101
 Alpha virt. eigenvalues --    3.54064   3.55691   3.58715   3.58951   3.61357
 Alpha virt. eigenvalues --    3.61784   3.63952   3.64546   3.66221   3.66709
 Alpha virt. eigenvalues --    3.67880   3.68075   3.71066   3.71079   4.13731
 Alpha virt. eigenvalues --    4.13769   4.13860   4.13950   4.14038   4.14161
 Alpha virt. eigenvalues --    4.14370   4.14703   4.15200   4.15896   4.16826
 Alpha virt. eigenvalues --    4.18023   4.19508   4.21262   4.25133   4.26046
 Alpha virt. eigenvalues --    4.29268   4.32564   4.36221   4.40197   4.44434
 Alpha virt. eigenvalues --    4.48855   4.53361   4.57830   4.62122   4.66089
 Alpha virt. eigenvalues --    4.69581   4.72459   4.74607   4.75940
          Condensed to atoms (all electrons):
 Mulliken charges:
               1
     1  C   -0.251964
     2  C   -0.033565
     3  C   -0.077884
     4  C   -0.076684
     5  C   -0.080836
     6  C   -0.078918
     7  C   -0.079946
     8  C   -0.079586
     9  C   -0.079839
    10  C   -0.079731
    11  C   -0.079778
    12  C   -0.079811
    13  C   -0.079721
    14  C   -0.079851
    15  C   -0.079674
    16  C   -0.079862
    17  C   -0.079642
    18  C   -0.079849
    19  C   -0.079626
    20  C   -0.079828
    21  C   -0.079607
    22  C   -0.079821
    23  C   -0.079534
    24  C   -0.079890
    25  C   -0.078926
    26  C   -0.080777
    27  C   -0.076723
    28  C   -0.077847
    29  C   -0.033586
    30  C   -0.251957
    31  H    0.095328
    32  H    0.095491
    33  H    0.083682
    34  H    0.081569
    35  H    0.080921
    36  H    0.080526
    37  H    0.080166
    38  H    0.080137
    39  H    0.079987
    40  H    0.080011
    41  H    0.079908
    42  H    0.079969
    43  H    0.079871
    44  H    0.079961
    45  H    0.079862
    46  H    0.079969
    47  H    0.079876
    48  H    0.079980
    49  H    0.079912
    50  H    0.079991
    51  H    0.079968
    52  H    0.080006
    53  H    0.080049
    54  H    0.080052
    55  H    0.080192
    56  H    0.080200
    57  H    0.080578
    58  H    0.080937
    59  H    0.081604
    60  H    0.083697
    61  H    0.095509
    62  H    0.095355
 Sum of Mulliken charges =  -0.00000
 Mulliken charges with hydrogens summed into heavy atoms:
               1
     1  C   -0.061145
     2  C    0.050117
     3  C    0.003685
     4  C    0.004237
     5  C   -0.000309
     6  C    0.001248
     7  C    0.000191
     8  C    0.000401
     9  C    0.000172
    10  C    0.000177
    11  C    0.000191
    12  C    0.000060
    13  C    0.000240
    14  C    0.000010
    15  C    0.000295
    16  C    0.000014
    17  C    0.000338
    18  C    0.000063
    19  C    0.000365
    20  C    0.000140
    21  C    0.000399
    22  C    0.000227
    23  C    0.000518
    24  C    0.000302
    25  C    0.001274
    26  C   -0.000199
    27  C    0.004215
    28  C    0.003756
    29  C    0.050111
    30  C   -0.061093
 Electronic spatial extent (au):  <R**2>=          87613.7327
 Charge=             -0.0000 electrons
 Dipole moment (field-independent basis, Debye):
    X=              0.0378    Y=              0.0043    Z=              0.0004  Tot=              0.0380
 Quadrupole moment (field-independent basis, Debye-Ang):
   XX=           -176.5029   YY=           -157.0299   ZZ=           -195.2995
   XY=              2.2927   XZ=              0.0062   YZ=             -0.0046
 Traceless Quadrupole moment (field-independent basis, Debye-Ang):
   XX=             -0.2255   YY=             19.2475   ZZ=            -19.0220
   XY=              2.2927   XZ=              0.0062   YZ=             -0.0046
 Octapole moment (field-independent basis, Debye-Ang**2):
  XXX=              6.0671  YYY=              0.0711  ZZZ=              0.0015  XYY=             -0.2540
  XXY=              1.9836  XXZ=              0.0841  XZZ=              0.0297  YZZ=              0.0185
  YYZ=              0.0007  XYZ=              0.1265
 Hexadecapole moment (field-independent basis, Debye-Ang**3):
 XXXX=        -118865.6874 YYYY=           -509.2739 ZZZZ=           -202.5346 XXXY=            790.1315
 XXXZ=              2.6637 YYYX=             -0.1193 YYYZ=             -0.0094 ZZZX=             -0.0094
 ZZZY=             -0.0040 XXYY=         -18206.4182 XXZZ=         -22546.5414 YYZZ=           -133.4457
 XXYZ=             -0.5382 YYXZ=             -0.0009 ZZXY=              1.6318
 N-N= 1.866187225752D+03 E-N=-6.420988806514D+03  KE= 1.150801795604D+03
 Calling FoFJK, ICntrl=      2127 FMM=T ISym2X=0 I1Cent= 0 IOpClX= 0 NMat=1 NMatS=1 NMatT=0.
 ***** Axes restored to original set *****
 -------------------------------------------------------------------
 Center     Atomic                   Forces (Hartrees/Bohr)
 Number     Number              X              Y              Z
 -------------------------------------------------------------------
      1        6          -0.008401021    0.004081053   -0.000192540
      2        6           0.010717145   -0.022506353    0.001288023
      3        6          -0.021230471    0.023817906   -0.001300006
      4        6           0.024685180   -0.025868330    0.001401320
      5        6          -0.026806729    0.025044570   -0.001337228
      6        6           0.027617233   -0.025684730    0.001369892
      7        6          -0.028342065    0.025367405   -0.001344771
      8        6           0.028642256   -0.025578692    0.001354529
      9        6          -0.028913733    0.025439696   -0.001343332
     10        6           0.029068711   -0.025504874    0.001345261
     11        6          -0.029176670    0.025421933   -0.001339641
     12        6           0.029289765   -0.025421977    0.001338352
     13        6          -0.029326700    0.025357913   -0.001336204
     14        6           0.029427442   -0.025325029    0.001333664
     15        6          -0.029427139    0.025271120   -0.001334324
     16        6           0.029514318   -0.025222155    0.001331287
     17        6          -0.029488394    0.025183135   -0.001334007
     18        6           0.029544784   -0.025127981    0.001330296
     19        6          -0.029490861    0.025116157   -0.001333977
     20        6           0.029489195   -0.025054348    0.001328611
     21        6          -0.029379126    0.025089953   -0.001332730
     22        6           0.029277833   -0.024996747    0.001323848
     23        6          -0.029019190    0.025119265   -0.001330619
     24        6           0.028721674   -0.024910303    0.001314434
     25        6          -0.028020015    0.025238489   -0.001334155
     26        6           0.027180157   -0.024622987    0.001297526
     27        6          -0.025086516    0.025485662   -0.001359094
     28        6           0.021582265   -0.023497599    0.001260727
     29        6          -0.011054519    0.022344585   -0.001261158
     30        6           0.008465570   -0.003958101    0.000179758
     31        1          -0.002749009   -0.003533217    0.000230345
     32        1          -0.002399633    0.000475335   -0.000013135
     33        1           0.005367658    0.000201340   -0.000046031
     34        1          -0.003416302    0.000567223   -0.000011958
     35        1           0.003197700   -0.000418585    0.000005080
     36        1          -0.003205595    0.000477564   -0.000007540
     37        1           0.003210771   -0.000434689    0.000005854
     38        1          -0.003217322    0.000456051   -0.000005908
     39        1           0.003212719   -0.000446638    0.000006256
     40        1          -0.003219008    0.000443405   -0.000005230
     41        1           0.003214166   -0.000446107    0.000005767
     42        1          -0.003218711    0.000433752   -0.000005271
     43        1           0.003213007   -0.000438509    0.000004939
     44        1          -0.003215059    0.000424920   -0.000005855
     45        1           0.003208761   -0.000426680    0.000004214
     46        1          -0.003208427    0.000415646   -0.000006548
     47        1           0.003202394   -0.000414192    0.000003993
     48        1          -0.003200710    0.000405529   -0.000006751
     49        1           0.003196388   -0.000405384    0.000004508
     50        1          -0.003194889    0.000395041   -0.000006012
     51        1           0.003193807   -0.000403362    0.000005620
     52        1          -0.003193703    0.000385471   -0.000004343
     53        1           0.003196556   -0.000408918    0.000006878
     54        1          -0.003198030    0.000377781   -0.000002274
     55        1           0.003204582   -0.000421071    0.000007758
     56        1          -0.003206513    0.000367418   -0.000000254
     57        1           0.003205176   -0.000440928    0.000008266
     58        1          -0.003202849    0.000361104    0.000000757
     59        1           0.003425579   -0.000520883    0.000010363
     60        1          -0.005367245   -0.000276883    0.000053684
     61        1           0.002407841   -0.000431818    0.000010892
     62        1           0.002695525    0.003581649   -0.000231807
 -------------------------------------------------------------------
 Cartesian Forces:  Max     0.029544784 RMS     0.014443778

 GradGradGradGradGradGradGradGradGradGradGradGradGradGradGradGradGradGrad
 Berny optimization.
 FormGI is forming the generalized inverse of G from B-inverse, IUseBI=4.
 Internal  Forces:  Max     0.022268929 RMS     0.008301075
 Search for a local minimum.
 Step number   1 out of a maximum of  277
 All quantities printed in internal units (Hartrees-Bohrs-Radians)
 Mixed Optimization -- RFO/linear search
 Second derivative matrix not updated -- first step.
 ITU=  0
     Eigenvalues ---    0.01060   0.01060   0.01060   0.01060   0.01060
     Eigenvalues ---    0.01060   0.01061   0.01061   0.01061   0.01061
     Eigenvalues ---    0.01061   0.01062   0.01066   0.01066   0.01978
     Eigenvalues ---    0.01979   0.01979   0.01979   0.01979   0.01979
     Eigenvalues ---    0.01979   0.01979   0.01979   0.01979   0.01979
     Eigenvalues ---    0.01979   0.01979   0.01979   0.01979   0.01979
     Eigenvalues ---    0.01979   0.01979   0.01979   0.01979   0.01979
     Eigenvalues ---    0.01979   0.01979   0.01979   0.01982   0.01983
     Eigenvalues ---    0.01999   0.01999   0.02887   0.02887   0.02888
     Eigenvalues ---    0.02888   0.02888   0.02888   0.02888   0.02888
     Eigenvalues ---    0.02889   0.02889   0.02889   0.02889   0.02889
     Eigenvalues ---    0.02949   0.02949   0.02949   0.02949   0.16000
     Eigenvalues ---    0.16000   0.16000   0.16000   0.16000   0.16000
     Eigenvalues ---    0.16000   0.16000   0.16000   0.16000   0.16000
     Eigenvalues ---    0.16000   0.16000   0.16000   0.16000   0.16000
     Eigenvalues ---    0.16000   0.16000   0.16000   0.16000   0.16000
     Eigenvalues ---    0.16000   0.16000   0.16000   0.16000   0.16000
     Eigenvalues ---    0.16000   0.16000   0.16000   0.16000   0.16000
     Eigenvalues ---    0.16000   0.22000   0.22000   0.22000   0.22000
     Eigenvalues ---    0.22000   0.22000   0.22000   0.22000   0.22000
     Eigenvalues ---    0.22000   0.22000   0.22000   0.22000   0.22000
     Eigenvalues ---    0.22000   0.22000   0.22000   0.22000   0.22000
     Eigenvalues ---    0.22000   0.22000   0.22000   0.22000   0.22000
     Eigenvalues ---    0.22000   0.22000   0.22000   0.22000   0.34823
     Eigenvalues ---    0.34824   0.34824   0.34824   0.34825   0.34827
     Eigenvalues ---    0.34831   0.34831   0.34835   0.34837   0.34839
     Eigenvalues ---    0.34840   0.34878   0.34881   0.35079   0.35079
     Eigenvalues ---    0.35079   0.35079   0.35079   0.35079   0.35079
     Eigenvalues ---    0.35080   0.35080   0.35080   0.35080   0.35080
     Eigenvalues ---    0.35080   0.35080   0.35081   0.35082   0.35083
     Eigenvalues ---    0.35083   0.35083   0.35083   0.35083   0.35083
     Eigenvalues ---    0.35084   0.35084   0.35084   0.35084   0.35190
     Eigenvalues ---    0.35191   0.35272   0.35274   0.35370   0.35371
     Eigenvalues ---    0.57288   0.57288   0.57292   0.57293   0.57299
     Eigenvalues ---    0.57300   0.57305   0.57306   0.57309   0.57310
     Eigenvalues ---    0.57311   0.57313   0.57314   0.58344   0.58347
 RFO step:  Lambda=-5.01225473D-02 EMin= 1.05962877D-02
 Linear search not attempted -- first point.
 Maximum step size (   0.300) exceeded in Quadratic search.
    -- Step size scaled by   0.764
 Iteration  1 RMS(Cart)=  0.08524095 RMS(Int)=  0.00026982
 Iteration  2 RMS(Cart)=  0.00135769 RMS(Int)=  0.00000012
 Iteration  3 RMS(Cart)=  0.00000016 RMS(Int)=  0.00000011
 Variable       Old X    -DE/DX   Delta X   Delta X   Delta X     New X
                                 (Linear)    (Quad)   (Total)
    R1        2.52276   0.01191   0.00000   0.01437   0.01437   2.53712
    R2        2.05076   0.00017   0.00000   0.00033   0.00033   2.05109
    R3        2.05235  -0.00019   0.00000  -0.00036  -0.00036   2.05199
    R4        2.79169  -0.01415   0.00000  -0.02710  -0.02710   2.76460
    R5        2.05366   0.00063   0.00000   0.00119   0.00119   2.05485
    R6        2.53133   0.01881   0.00000   0.02305   0.02305   2.55438
    R7        2.05546  -0.00026   0.00000  -0.00049  -0.00049   2.05497
    R8        2.79263  -0.01788   0.00000  -0.03430  -0.03430   2.75834
    R9        2.05548  -0.00013   0.00000  -0.00025  -0.00025   2.05523
   R10        2.53139   0.02106   0.00000   0.02581   0.02581   2.55720
   R11        2.05541  -0.00019   0.00000  -0.00036  -0.00036   2.05505
   R12        2.79262  -0.01889   0.00000  -0.03622  -0.03622   2.75640
   R13        2.05546  -0.00015   0.00000  -0.00028  -0.00028   2.05518
   R14        2.53135   0.02183   0.00000   0.02676   0.02676   2.55812
   R15        2.05540  -0.00017   0.00000  -0.00032  -0.00032   2.05507
   R16        2.79262  -0.01922   0.00000  -0.03687  -0.03687   2.75575
   R17        2.05547  -0.00016   0.00000  -0.00031  -0.00031   2.05516
   R18        2.53134   0.02213   0.00000   0.02712   0.02712   2.55846
   R19        2.05539  -0.00016   0.00000  -0.00031  -0.00031   2.05508
   R20        2.79260  -0.01935   0.00000  -0.03712  -0.03712   2.75549
   R21        2.05547  -0.00017   0.00000  -0.00032  -0.00032   2.05515
   R22        2.53135   0.02224   0.00000   0.02726   0.02726   2.55861
   R23        2.05538  -0.00016   0.00000  -0.00030  -0.00030   2.05508
   R24        2.79257  -0.01940   0.00000  -0.03721  -0.03721   2.75536
   R25        2.05547  -0.00017   0.00000  -0.00032  -0.00032   2.05515
   R26        2.53138   0.02227   0.00000   0.02730   0.02730   2.55868
   R27        2.05538  -0.00016   0.00000  -0.00030  -0.00030   2.05508
   R28        2.79251  -0.01941   0.00000  -0.03722  -0.03722   2.75529
   R29        2.05547  -0.00017   0.00000  -0.00032  -0.00032   2.05515
   R30        2.53143   0.02225   0.00000   0.02729   0.02729   2.55872
   R31        2.05539  -0.00016   0.00000  -0.00031  -0.00031   2.05508
   R32        2.79244  -0.01940   0.00000  -0.03719  -0.03719   2.75524
   R33        2.05546  -0.00017   0.00000  -0.00031  -0.00031   2.05515
   R34        2.53149   0.02221   0.00000   0.02724   0.02724   2.55873
   R35        2.05540  -0.00016   0.00000  -0.00031  -0.00031   2.05509
   R36        2.79237  -0.01937   0.00000  -0.03713  -0.03713   2.75525
   R37        2.05545  -0.00017   0.00000  -0.00032  -0.00032   2.05514
   R38        2.53153   0.02214   0.00000   0.02715   0.02715   2.55869
   R39        2.05540  -0.00016   0.00000  -0.00030  -0.00030   2.05510
   R40        2.79236  -0.01931   0.00000  -0.03702  -0.03702   2.75534
   R41        2.05545  -0.00017   0.00000  -0.00032  -0.00032   2.05512
   R42        2.53154   0.02203   0.00000   0.02701   0.02701   2.55855
   R43        2.05541  -0.00015   0.00000  -0.00029  -0.00029   2.05511
   R44        2.79240  -0.01919   0.00000  -0.03678  -0.03678   2.75562
   R45        2.05545  -0.00018   0.00000  -0.00034  -0.00034   2.05511
   R46        2.53150   0.02176   0.00000   0.02668   0.02668   2.55818
   R47        2.05541  -0.00015   0.00000  -0.00028  -0.00028   2.05513
   R48        2.79250  -0.01887   0.00000  -0.03618  -0.03618   2.75633
   R49        2.05545  -0.00019   0.00000  -0.00036  -0.00036   2.05509
   R50        2.53145   0.02102   0.00000   0.02578   0.02578   2.55722
   R51        2.05541  -0.00013   0.00000  -0.00025  -0.00025   2.05516
   R52        2.79262  -0.01789   0.00000  -0.03430  -0.03430   2.75832
   R53        2.05544  -0.00020   0.00000  -0.00039  -0.00039   2.05505
   R54        2.53131   0.01881   0.00000   0.02306   0.02306   2.55437
   R55        2.05546  -0.00012   0.00000  -0.00023  -0.00023   2.05522
   R56        2.79174  -0.01416   0.00000  -0.02712  -0.02712   2.76462
   R57        2.05546  -0.00026   0.00000  -0.00050  -0.00050   2.05497
   R58        2.52273   0.01193   0.00000   0.01438   0.01438   2.53711
   R59        2.05367   0.00062   0.00000   0.00119   0.00119   2.05486
   R60        2.05232  -0.00018   0.00000  -0.00034  -0.00034   2.05198
   R61        2.05078   0.00017   0.00000   0.00032   0.00032   2.05110
    A1        2.09383   0.00446   0.00000   0.01620   0.01620   2.11003
    A2        2.11473   0.00027   0.00000   0.00100   0.00100   2.11573
    A3        2.07463  -0.00473   0.00000  -0.01720  -0.01720   2.05743
    A4        2.11399   0.01185   0.00000   0.03353   0.03353   2.14752
    A5        2.07622  -0.00045   0.00000   0.00315   0.00315   2.07938
    A6        2.09297  -0.01141   0.00000  -0.03668  -0.03668   2.05629
    A7        2.11037   0.01218   0.00000   0.03446   0.03446   2.14483
    A8        2.08153  -0.00964   0.00000  -0.03013  -0.03013   2.05139
    A9        2.09129  -0.00254   0.00000  -0.00432  -0.00432   2.08696
   A10        2.11100   0.01271   0.00000   0.03594   0.03594   2.14693
   A11        2.09036  -0.00304   0.00000  -0.00593  -0.00593   2.08443
   A12        2.08183  -0.00966   0.00000  -0.03001  -0.03001   2.05182
   A13        2.11056   0.01247   0.00000   0.03527   0.03527   2.14583
   A14        2.08195  -0.00956   0.00000  -0.02973  -0.02973   2.05222
   A15        2.09068  -0.00291   0.00000  -0.00555  -0.00555   2.08513
   A16        2.11118   0.01262   0.00000   0.03568   0.03568   2.14686
   A17        2.09042  -0.00298   0.00000  -0.00575  -0.00575   2.08467
   A18        2.08159  -0.00963   0.00000  -0.02993  -0.02993   2.05165
   A19        2.11026   0.01263   0.00000   0.03572   0.03572   2.14598
   A20        2.08213  -0.00965   0.00000  -0.02998  -0.02998   2.05215
   A21        2.09079  -0.00298   0.00000  -0.00573  -0.00573   2.08506
   A22        2.11149   0.01256   0.00000   0.03552   0.03552   2.14701
   A23        2.09027  -0.00295   0.00000  -0.00566  -0.00566   2.08462
   A24        2.08142  -0.00961   0.00000  -0.02987  -0.02987   2.05155
   A25        2.10989   0.01272   0.00000   0.03599   0.03599   2.14588
   A26        2.08235  -0.00970   0.00000  -0.03012  -0.03012   2.05223
   A27        2.09095  -0.00303   0.00000  -0.00587  -0.00587   2.08508
   A28        2.11187   0.01250   0.00000   0.03536   0.03536   2.14722
   A29        2.09011  -0.00292   0.00000  -0.00557  -0.00557   2.08454
   A30        2.08121  -0.00958   0.00000  -0.02979  -0.02979   2.05142
   A31        2.10949   0.01280   0.00000   0.03621   0.03621   2.14570
   A32        2.08257  -0.00973   0.00000  -0.03022  -0.03022   2.05234
   A33        2.09112  -0.00307   0.00000  -0.00598  -0.00598   2.08514
   A34        2.11223   0.01244   0.00000   0.03520   0.03520   2.14743
   A35        2.08997  -0.00289   0.00000  -0.00550  -0.00550   2.08447
   A36        2.08099  -0.00955   0.00000  -0.02970  -0.02970   2.05129
   A37        2.10918   0.01286   0.00000   0.03636   0.03636   2.14555
   A38        2.08272  -0.00976   0.00000  -0.03028  -0.03028   2.05244
   A39        2.09128  -0.00310   0.00000  -0.00608  -0.00608   2.08520
   A40        2.11245   0.01241   0.00000   0.03509   0.03509   2.14754
   A41        2.08990  -0.00288   0.00000  -0.00546  -0.00546   2.08443
   A42        2.08084  -0.00953   0.00000  -0.02962  -0.02962   2.05121
   A43        2.10909   0.01288   0.00000   0.03642   0.03642   2.14551
   A44        2.08274  -0.00976   0.00000  -0.03028  -0.03028   2.05246
   A45        2.09135  -0.00312   0.00000  -0.00613  -0.00613   2.08522
   A46        2.11241   0.01240   0.00000   0.03508   0.03508   2.14749
   A47        2.08995  -0.00289   0.00000  -0.00549  -0.00549   2.08446
   A48        2.08083  -0.00952   0.00000  -0.02959  -0.02959   2.05124
   A49        2.10931   0.01285   0.00000   0.03633   0.03633   2.14564
   A50        2.08258  -0.00973   0.00000  -0.03021  -0.03021   2.05237
   A51        2.09129  -0.00311   0.00000  -0.00613  -0.00613   2.08517
   A52        2.11203   0.01245   0.00000   0.03520   0.03520   2.14724
   A53        2.09014  -0.00292   0.00000  -0.00558  -0.00558   2.08456
   A54        2.08101  -0.00953   0.00000  -0.02962  -0.02962   2.05139
   A55        2.10984   0.01277   0.00000   0.03612   0.03612   2.14596
   A56        2.08225  -0.00969   0.00000  -0.03007  -0.03007   2.05218
   A57        2.09109  -0.00308   0.00000  -0.00605  -0.00605   2.08504
   A58        2.11141   0.01252   0.00000   0.03542   0.03542   2.14683
   A59        2.09042  -0.00296   0.00000  -0.00570  -0.00570   2.08472
   A60        2.08136  -0.00957   0.00000  -0.02972  -0.02972   2.05164
   A61        2.11054   0.01267   0.00000   0.03584   0.03584   2.14639
   A62        2.08185  -0.00964   0.00000  -0.02993  -0.02993   2.05192
   A63        2.09079  -0.00303   0.00000  -0.00591  -0.00591   2.08488
   A64        2.11073   0.01260   0.00000   0.03564   0.03564   2.14637
   A65        2.09070  -0.00299   0.00000  -0.00580  -0.00580   2.08490
   A66        2.08176  -0.00961   0.00000  -0.02984  -0.02984   2.05191
   A67        2.11116   0.01259   0.00000   0.03561   0.03561   2.14677
   A68        2.08151  -0.00960   0.00000  -0.02982  -0.02982   2.05169
   A69        2.09051  -0.00299   0.00000  -0.00578  -0.00578   2.08473
   A70        2.11026   0.01263   0.00000   0.03572   0.03572   2.14597
   A71        2.09087  -0.00300   0.00000  -0.00580  -0.00580   2.08507
   A72        2.08206  -0.00963   0.00000  -0.02992  -0.02992   2.05214
   A73        2.11147   0.01256   0.00000   0.03552   0.03552   2.14699
   A74        2.08137  -0.00959   0.00000  -0.02981  -0.02981   2.05156
   A75        2.09035  -0.00297   0.00000  -0.00571  -0.00571   2.08463
   A76        2.11017   0.01253   0.00000   0.03544   0.03544   2.14561
   A77        2.09088  -0.00295   0.00000  -0.00565  -0.00565   2.08523
   A78        2.08213  -0.00958   0.00000  -0.02978  -0.02978   2.05235
   A79        2.11140   0.01264   0.00000   0.03575   0.03575   2.14715
   A80        2.08159  -0.00963   0.00000  -0.02991  -0.02991   2.05168
   A81        2.09020  -0.00301   0.00000  -0.00584  -0.00584   2.08436
   A82        2.11005   0.01223   0.00000   0.03459   0.03459   2.14464
   A83        2.09143  -0.00256   0.00000  -0.00438  -0.00438   2.08704
   A84        2.08170  -0.00967   0.00000  -0.03021  -0.03021   2.05150
   A85        2.11418   0.01182   0.00000   0.03344   0.03344   2.14762
   A86        2.09287  -0.01139   0.00000  -0.03665  -0.03665   2.05622
   A87        2.07614  -0.00043   0.00000   0.00321   0.00321   2.07935
   A88        2.11477   0.00027   0.00000   0.00099   0.00099   2.11576
   A89        2.09374   0.00446   0.00000   0.01623   0.01623   2.10997
   A90        2.07467  -0.00474   0.00000  -0.01722  -0.01722   2.05745
    D1       -3.14158  -0.00000   0.00000  -0.00000  -0.00000  -3.14158
    D2       -0.00000   0.00000   0.00000   0.00000   0.00000  -0.00000
    D3        0.00000   0.00000   0.00000   0.00000   0.00000   0.00000
    D4        3.14158   0.00000   0.00000   0.00000   0.00000   3.14159
    D5        3.14154   0.00000   0.00000   0.00001   0.00001   3.14155
    D6       -0.00003   0.00000   0.00000   0.00000   0.00000  -0.00003
    D7       -0.00004   0.00000   0.00000   0.00001   0.00001  -0.00004
    D8        3.14158  -0.00000   0.00000  -0.00000  -0.00000   3.14158
    D9       -3.14155  -0.00000   0.00000  -0.00001  -0.00001  -3.14156
   D10        0.00000   0.00000   0.00000   0.00000   0.00000   0.00000
   D11        0.00002  -0.00000   0.00000  -0.00000  -0.00000   0.00001
   D12        3.14157   0.00000   0.00000   0.00001   0.00001   3.14158
   D13        3.14147   0.00000   0.00000   0.00002   0.00002   3.14149
   D14       -0.00007   0.00000   0.00000   0.00001   0.00001  -0.00006
   D15       -0.00008   0.00000   0.00000   0.00001   0.00001  -0.00007
   D16        3.14156  -0.00000   0.00000  -0.00000  -0.00000   3.14156
   D17       -3.14152  -0.00000   0.00000  -0.00002  -0.00002  -3.14153
   D18        0.00001   0.00000   0.00000   0.00000   0.00000   0.00002
   D19        0.00002  -0.00000   0.00000  -0.00000  -0.00000   0.00002
   D20        3.14156   0.00000   0.00000   0.00001   0.00001   3.14157
   D21        3.14143   0.00000   0.00000   0.00003   0.00003   3.14146
   D22       -0.00010   0.00000   0.00000   0.00001   0.00001  -0.00009
   D23       -0.00010   0.00000   0.00000   0.00001   0.00001  -0.00009
   D24        3.14155  -0.00000   0.00000  -0.00001  -0.00001   3.14155
   D25       -3.14151  -0.00000   0.00000  -0.00002  -0.00002  -3.14153
   D26        0.00002  -0.00000   0.00000  -0.00000  -0.00000   0.00002
   D27        0.00002  -0.00000   0.00000  -0.00000  -0.00000   0.00002
   D28        3.14156   0.00000   0.00000   0.00001   0.00001   3.14157
   D29        3.14146   0.00000   0.00000   0.00002   0.00002   3.14148
   D30       -0.00009   0.00000   0.00000   0.00001   0.00001  -0.00008
   D31       -0.00007   0.00000   0.00000   0.00001   0.00001  -0.00007
   D32        3.14156  -0.00000   0.00000  -0.00001  -0.00001   3.14156
   D33       -3.14154  -0.00000   0.00000  -0.00001  -0.00001  -3.14155
   D34        0.00003  -0.00000   0.00000  -0.00000  -0.00000   0.00002
   D35        0.00001  -0.00000   0.00000  -0.00000  -0.00000   0.00001
   D36        3.14158   0.00000   0.00000   0.00001   0.00001   3.14158
   D37        3.14159   0.00000   0.00000   0.00000   0.00000   3.14159
   D38       -0.00002   0.00000   0.00000   0.00001   0.00001  -0.00001
   D39        0.00002  -0.00000   0.00000  -0.00001  -0.00000   0.00001
   D40       -3.14159  -0.00000   0.00000  -0.00000  -0.00000  -3.14159
   D41        3.14157   0.00000   0.00000   0.00000   0.00000   3.14157
   D42        0.00002  -0.00000   0.00000  -0.00001  -0.00001   0.00001
   D43       -0.00001  -0.00000   0.00000  -0.00000  -0.00000  -0.00001
   D44       -3.14156  -0.00000   0.00000  -0.00001  -0.00001  -3.14157
   D45       -3.14139  -0.00000   0.00000  -0.00003  -0.00003  -3.14142
   D46        0.00011  -0.00000   0.00000  -0.00001  -0.00001   0.00011
   D47        0.00016  -0.00000   0.00000  -0.00002  -0.00002   0.00014
   D48       -3.14152   0.00000   0.00000   0.00000   0.00000  -3.14152
   D49        3.14146   0.00000   0.00000   0.00002   0.00002   3.14149
   D50       -0.00001  -0.00000   0.00000  -0.00001  -0.00001  -0.00001
   D51       -0.00004  -0.00000   0.00000  -0.00000  -0.00000  -0.00004
   D52       -3.14151  -0.00000   0.00000  -0.00003  -0.00003  -3.14154
   D53       -3.14116  -0.00001   0.00000  -0.00007  -0.00006  -3.14122
   D54        0.00027  -0.00000   0.00000  -0.00002  -0.00002   0.00025
   D55        0.00031  -0.00000   0.00000  -0.00004  -0.00003   0.00028
   D56       -3.14144   0.00000   0.00000   0.00001   0.00001  -3.14143
   D57        3.14139   0.00000   0.00000   0.00004   0.00004   3.14142
   D58       -0.00003  -0.00000   0.00000  -0.00001  -0.00001  -0.00004
   D59       -0.00004  -0.00000   0.00000  -0.00000  -0.00000  -0.00005
   D60       -3.14146  -0.00000   0.00000  -0.00005  -0.00005  -3.14151
   D61       -3.14103  -0.00001   0.00000  -0.00008  -0.00008  -3.14111
   D62        0.00039  -0.00000   0.00000  -0.00004  -0.00004   0.00035
   D63        0.00039  -0.00000   0.00000  -0.00004  -0.00004   0.00035
   D64       -3.14138   0.00000   0.00000   0.00001   0.00001  -3.14137
   D65        3.14140   0.00000   0.00000   0.00003   0.00003   3.14143
   D66       -0.00004  -0.00000   0.00000  -0.00000  -0.00000  -0.00005
   D67       -0.00002  -0.00000   0.00000  -0.00001  -0.00001  -0.00003
   D68       -3.14146  -0.00000   0.00000  -0.00005  -0.00005  -3.14151
   D69       -3.14111  -0.00001   0.00000  -0.00007  -0.00007  -3.14118
   D70        0.00038  -0.00000   0.00000  -0.00004  -0.00004   0.00033
   D71        0.00033  -0.00000   0.00000  -0.00003  -0.00003   0.00030
   D72       -3.14137   0.00000   0.00000  -0.00000  -0.00000  -3.14137
   D73        3.14152   0.00000   0.00000   0.00001   0.00001   3.14153
   D74       -0.00003  -0.00000   0.00000  -0.00000  -0.00000  -0.00003
   D75        0.00003  -0.00000   0.00000  -0.00002  -0.00002   0.00002
   D76       -3.14151  -0.00000   0.00000  -0.00003  -0.00003  -3.14154
   D77       -3.14142  -0.00000   0.00000  -0.00002  -0.00002  -3.14144
   D78        0.00021  -0.00000   0.00000  -0.00003  -0.00003   0.00018
   D79        0.00012  -0.00000   0.00000  -0.00001  -0.00001   0.00012
   D80       -3.14143  -0.00000   0.00000  -0.00002  -0.00002  -3.14145
   D81       -3.14147  -0.00000   0.00000  -0.00003  -0.00003  -3.14150
   D82        0.00002  -0.00000   0.00000  -0.00001  -0.00001   0.00002
   D83        0.00009  -0.00000   0.00000  -0.00002  -0.00002   0.00007
   D84        3.14158   0.00000   0.00000   0.00000   0.00000   3.14159
   D85        3.14135   0.00000   0.00000   0.00005   0.00004   3.14140
   D86       -0.00006  -0.00000   0.00000  -0.00000  -0.00000  -0.00007
   D87       -0.00014   0.00000   0.00000   0.00002   0.00002  -0.00012
[...]
 00053,-0.00000098,0.00000006,-0.00000336,-0.00000102,0.00000011,0.0000
 0830,-0.00000343,0.00000019,-0.00005104,-0.00001906,0.00000153,0.00004
 327,-0.00024312,0.00001499,-0.00028860,-0.00089822,0.00005705,-0.00390
 179,0.00241843,-0.00009819,0.06457383,0.00000770,-0.00000556,0.0000002
 0,-0.00000275,0.00001235,-0.00000075,0.00000235,-0.00001085,0.00000062
 ,-0.00000111,0.00001320,-0.00000083,0.00000169,-0.00001099,0.00000063,
 -0.00000104,0.00001434,-0.00000089,0.00000174,-0.00001191,0.00000070,-
 0.00000083,0.00001560,-0.00000094,0.00000156,-0.00001304,0.00000080,-0
 .00000037,0.00001739,-0.00000103,0.00000133,-0.00001447,0.00000086,0.0
 0000020,0.00001972,-0.00000117,0.00000103,-0.00001642,0.00000098,0.000
 00104,0.00002282,-0.00000137,0.00000055,-0.00001937,0.00000117,0.00000
 220,0.00002680,-0.00000163,-0.00000033,-0.00002293,0.00000137,0.000004
 52,0.00003208,-0.00000197,-0.00000230,-0.00002879,0.00000169,0.0000092
 3,0.00003975,-0.00000244,-0.00000720,-0.00003873,0.00000234,0.00002091
 ,0.00005135,-0.00000344,-0.00001980,-0.00006100,0.00000310,0.00004568,
 0.00007421,-0.00000380,-0.00001245,-0.00008685,0.00000401,0.00042661,0
 .00055115,-0.00004784,-0.00181254,0.00085437,-0.00013895,-0.00364639,-
 0.01684767,0.00121472,-0.03182467,-0.32140867,0.01698045,-0.00000670,-
 0.00968799,0.00089386,0.00000157,-0.00000008,0.00000003,-0.00000034,0.
 00000017,0.00000003,-0.00000021,-0.00000207,0.00000016,-0.00000004,-0.
 00000020,0.00000005,0.,-0.00000230,0.00000017,-0.00000007,-0.00000043,
 0.00000006,0.00000004,-0.00000255,0.00000018,-0.00000005,-0.00000054,0
 .00000005,0.00000009,-0.00000286,0.00000016,-0.00000005,-0.00000064,0.
 00000003,0.00000012,-0.00000330,0.00000018,-0.00000007,-0.00000085,0.0
 0000004,0.00000016,-0.00000386,0.00000022,-0.00000009,-0.00000108,0.00
 000006,0.00000020,-0.00000453,0.00000026,-0.00000008,-0.00000123,0.000
 00007,0.00000034,-0.00000541,0.00000032,-0.00000006,-0.00000161,0.0000
 0010,0.00000042,-0.00000653,0.00000040,0.00000005,-0.00000182,0.000000
 14,0.00000057,-0.00000795,0.00000051,0.00000051,-0.00000176,0.00000018
 ,0.00000050,-0.00000963,0.00000063,0.00000262,-0.00000050,0.00000025,-
 0.00000202,-0.00001169,0.00000105,0.00003869,0.00000491,0.00000012,-0.
 00025440,0.00010045,0.00000204,0.00104298,0.00068060,-0.00003411,0.002
 60578,-0.00060445,0.00024021,0.03509279,0.34433905,-0.00000048,0.00000
 030,-0.00000038,0.00000014,-0.00000075,-0.00000007,-0.00000014,0.00000
 066,-0.00000013,0.00000008,-0.00000082,-0.00000009,-0.00000011,0.00000
 067,-0.00000017,0.00000006,-0.00000089,-0.00000011,-0.00000011,0.00000
 072,-0.00000013,0.00000006,-0.00000095,-0.00000001,-0.00000008,0.00000
 080,-0.00000008,0.00000002,-0.00000110,0.,-0.00000009,0.00000089,-0.00
 000014,-0.00000001,-0.00000120,-0.00000004,-0.00000004,0.00000100,-0.0
 0000022,-0.00000009,-0.00000140,-0.00000011,0.,0.00000110,-0.00000034,
 -0.00000017,-0.00000158,-0.00000020,0.00000001,0.00000134,-0.00000051,
 -0.00000032,-0.00000195,-0.00000050,0.00000020,0.00000169,-0.00000110,
 -0.00000063,-0.00000242,-0.00000023,0.00000053,0.00000231,-0.00000078,
 -0.00000147,-0.00000333,-0.00000413,0.00000125,0.00000300,-0.00001148,
 -0.00000294,-0.00000341,0.00001561,0.00000105,0.00000444,-0.00002127,-
 0.00002646,-0.00004462,-0.00019884,0.00008826,-0.00015906,-0.00163922,
 0.00020929,0.00102806,0.00295595,0.00203333,0.01697194,-0.04274858,0.0
 0004025,0.00109170,0.00514291,-0.00000006,0.,0.00000014,0.00000003,0.0
 0000004,0.00000016,0.00000001,0.00000013,0.00000013,0.,0.00000001,0.00
 000014,0.,0.00000015,0.00000012,0.,0.00000003,0.00000015,0.,0.00000017
 ,0.00000013,0.,0.00000004,0.00000010,0.,0.00000018,0.00000004,0.000000
 01,0.00000004,0.00000004,0.,0.00000021,0.00000005,0.,0.00000005,0.0000
 0009,0.,0.00000025,0.00000010,0.,0.00000006,0.00000015,-0.00000001,0.0
 0000031,0.00000017,0.,0.00000010,0.00000026,-0.00000001,0.00000032,0.0
 0000029,0.00000001,0.00000011,0.00000044,-0.00000002,0.00000043,0.0000
 0049,0.,0.00000015,0.00000085,-0.00000002,0.00000054,0.00000091,-0.000
 00002,0.00000020,0.00000153,-0.00000003,0.00000066,0.00000116,-0.00000
 011,0.00000024,0.00000416,0.00000010,0.00000104,0.00000536,-0.00000194
 ,0.00000049,0.00001066,0.00001567,0.00000194,0.00010756,-0.00005943,-0
 .00002213,0.00022133,-0.00010943,0.00024140,0.00365374,-0.00233684,-0.
 01924148,0.02847452,0.00000132,-0.00000088,0.00000004,-0.00000048,0.00
 000199,-0.00000011,0.00000040,-0.00000169,0.00000010,-0.00000022,0.000
 00211,-0.00000013,0.00000032,-0.00000167,0.00000010,-0.00000017,0.0000
 0219,-0.00000013,0.00000029,-0.00000174,0.00000010,-0.00000034,0.00000
 243,-0.00000015,0.00000049,-0.00000192,0.00000011,-0.00000038,0.000002
 62,-0.00000016,0.00000060,-0.00000203,0.00000012,-0.00000051,0.0000028
 7,-0.00000017,0.00000077,-0.00000218,0.00000012,-0.00000070,0.00000321
 ,-0.00000019,0.00000105,-0.00000243,0.00000014,-0.00000105,0.00000358,
 -0.00000021,0.00000152,-0.00000257,0.00000014,-0.00000161,0.00000397,-
 0.00000022,0.00000229,-0.00000280,0.00000015,-0.00000256,0.00000434,-0
 .00000028,0.00000353,-0.00000302,0.00000015,-0.00000364,0.00000451,-0.
 00000010,0.00000571,-0.00000280,0.00000007,-0.00000456,0.00000244,-0.0
 0000076,0.00002547,0.00000062,0.00000004,0.00003652,0.00007524,-0.0000
 0275,-0.00013602,0.00020430,-0.00001186,0.00178854,-0.00183017,0.00005
 310,-0.00007239,-0.03084718,0.00188062,-0.06549266,-0.03969735,0.00258
 242,0.00000019,0.,0.,-0.00000005,0.,0.,-0.00000004,-0.00000035,0.00000
 002,-0.00000001,-0.00000005,0.,-0.00000001,-0.00000040,0.00000002,-0.0
 0000001,-0.00000008,0.,0.,-0.00000044,0.00000003,-0.00000002,-0.000000
 10,0.,0.,-0.00000045,0.00000003,-0.00000002,-0.00000014,0.00000001,0.,
 -0.00000050,0.00000003,-0.00000002,-0.00000017,0.00000001,0.,-0.000000
 59,0.00000004,-0.00000002,-0.00000021,0.00000001,0.,-0.00000066,0.0000
 0004,-0.00000002,-0.00000023,0.00000002,0.,-0.00000075,0.00000005,0.,-
 0.00000030,0.00000002,-0.00000003,-0.00000083,0.00000005,0.00000005,-0
 .00000032,0.00000002,-0.00000011,-0.00000085,0.00000006,0.00000017,-0.
 00000022,0.00000003,-0.00000040,-0.00000060,0.00000005,0.00000128,0.00
 000037,-0.00000009,-0.00000320,0.00000092,0.,0.00001034,0.00000307,-0.
 00000015,-0.00005033,0.00003338,-0.00000167,0.00013082,0.00023490,-0.0
 0001281,-0.00023314,0.00094913,-0.00005371,-0.00465433,-0.00162493,0.0
 0019437,0.06212481,-0.00000045,0.00000049,-0.00000003,0.00000039,-0.00
 000107,0.00000007,-0.00000028,0.00000086,-0.00000004,0.00000029,-0.000
 00109,0.00000006,-0.00000049,0.00000088,-0.00000005,0.00000071,-0.0000
 0131,0.00000007,-0.00000112,0.00000094,-0.00000005,0.00000087,-0.00000
 131,0.00000006,-0.00000130,0.00000086,-0.00000005,0.00000151,-0.000001
 57,0.00000008,-0.00000201,0.00000090,-0.00000006,0.00000233,-0.0000018
 9,0.00000009,-0.00000326,0.00000096,-0.00000005,0.00000395,-0.00000224
 ,0.00000009,-0.00000538,0.00000074,-0.00000002,0.00000651,-0.00000289,
 0.00000009,-0.00000897,0.00000102,-0.00000003,0.00001114,-0.00000402,0
 .00000020,-0.00001544,0.00000085,-0.00000002,0.00001961,-0.00000584,-0
 .00000013,-0.00002803,0.00000027,0.00000012,0.00003668,-0.00000936,0.0
 0000175,-0.00005734,-0.00000098,-0.00000014,0.00007353,-0.00002253,-0.
 00000537,-0.00013078,-0.00000261,0.00000323,0.00011885,-0.00005759,0.0
 0002196,-0.00034789,0.00042937,-0.00002787,0.00221572,0.00097567,-0.00
 051399,-0.00071359,-0.00984989,0.00087754,-0.04313999,-0.33054593,0.01
 811117,-0.00000031,0.00000005,0.,0.,-0.00000006,0.,-0.00000002,0.00000
 017,-0.00000001,-0.00000002,0.,0.,0.,0.00000019,0.,0.00000001,0.000000
 02,0.,0.00000002,0.00000022,0.,0.00000005,0.00000008,0.,0.00000004,0.0
 0000029,-0.00000001,0.00000005,0.00000011,0.,0.00000002,0.00000037,-0.
 00000001,0.00000006,0.00000021,0.,0.00000001,0.00000043,-0.00000001,0.
 00000007,0.00000027,0.,-0.00000003,0.00000056,-0.00000001,0.00000012,0
 .00000048,0.,0.00000002,0.00000070,-0.00000002,0.00000017,0.00000053,0
 .,-0.00000005,0.00000093,-0.00000002,0.00000028,0.00000080,-0.00000002
 ,-0.00000013,0.00000137,-0.00000001,0.00000058,0.00000136,0.00000007,-
 0.00000034,0.00000221,-0.00000001,0.00000160,0.00000252,-0.00000070,-0
 .00000094,0.00000465,-0.00000002,0.00000500,0.00000408,0.00000068,-0.0
 0001482,0.00000794,-0.00000020,0.00022085,-0.00001462,0.00001980,-0.00
 097225,0.00054525,-0.00000924,-0.00192259,0.00086378,0.00061831,0.0497
 5432,0.34975925,-0.00000002,-0.00000006,-0.00000040,-0.00000002,0.0000
 0004,-0.00000013,0.,-0.00000004,-0.00000011,0.,0.00000003,-0.00000016,
 0.00000002,-0.00000004,-0.00000014,-0.00000006,0.00000005,-0.00000018,
 0.00000008,-0.00000005,-0.00000009,-0.00000005,0.00000005,-0.00000008,
 0.00000009,-0.00000004,-0.00000004,-0.00000010,0.00000003,-0.00000008,
 0.00000011,-0.00000003,-0.00000009,-0.00000013,0.00000008,-0.00000014,
 0.00000020,-0.00000004,-0.00000016,-0.00000025,0.00000009,-0.00000015,
 0.00000034,-0.00000010,-0.00000028,-0.00000040,0.00000016,-0.00000059,
 0.00000049,-0.00000008,-0.00000035,-0.00000066,0.00000025,0.00000051,0
 .00000092,-0.00000008,-0.00000101,-0.00000119,-0.00000006,-0.00000598,
 0.00000165,0.,-0.00000034,-0.00000207,0.00000194,0.00002348,0.00000330
 ,-0.00000045,-0.00000906,-0.00000493,-0.00000489,-0.00010406,0.0000079
 8,0.00000237,0.00003756,-0.00000543,0.00002223,0.00031931,0.00002119,-
 0.00003131,-0.00006956,-0.00018962,-0.00048890,-0.00733055,0.00007248,
 0.00106434,0.00463601,0.00278894,0.01808981,-0.03428512,0.00000005,-0.
 00000002,0.00000015,0.00000001,0.00000005,0.00000018,0.,0.,0.00000016,
 0.,0.,0.00000016,0.,0.,0.00000015,0.,0.00000001,0.00000016,0.,0.,0.000
 00016,0.,0.,0.00000012,0.,0.,0.00000006,0.,0.,0.00000005,0.,0.,0.00000
 007,0.,0.,0.00000009,0.,0.,0.00000013,0.,-0.00000001,0.00000016,0.,0.0
 0000001,0.00000021,0.,0.,0.00000024,0.,-0.00000004,0.00000034,0.,0.,0.
 00000048,0.00000001,-0.00000001,0.00000057,-0.00000001,-0.00000002,0.0
 0000047,0.00000002,0.,0.00000110,-0.00000002,0.00000007,0.00000252,0.0
 0000003,0.,0.00000188,-0.00000016,-0.00000074,-0.00000900,0.00000010,-
 0.00000004,0.00000422,-0.00000026,0.00000073,0.00001596,0.00000122,-0.
 00000049,0.00000327,-0.00001197,0.00001969,0.00033724,0.00006160,-0.00
 002110,0.00029187,0.00021223,0.00061649,0.01093100,-0.00323603,-0.0199
 9234,0.02294913,-0.00000675,0.00000451,-0.00000021,0.00000334,-0.00001
 032,0.00000060,-0.00000283,0.00000927,-0.00000053,0.00000121,-0.000010
 90,0.00000065,-0.00000136,0.00000904,-0.00000053,0.00000049,-0.0000117
 5,0.00000071,-0.00000129,0.00000950,-0.00000056,0.00000029,-0.00001277
 ,0.00000077,-0.00000125,0.00001022,-0.00000062,0.00000065,-0.00001430,
 0.00000085,-0.00000177,0.00001123,-0.00000067,0.00000085,-0.00001616,0
 .00000096,-0.00000232,0.00001263,-0.00000075,0.00000117,-0.00001847,0.
 00000108,-0.00000300,0.00001435,-0.00000085,0.00000151,-0.00002152,0.0
 0000127,-0.00000403,0.00001690,-0.00000100,0.00000223,-0.00002564,0.00
 000149,-0.00000595,0.00002029,-0.00000118,0.00000350,-0.00003139,0.000
 00193,-0.00000991,0.00002574,-0.00000152,0.00000414,-0.00004135,0.0000
 0203,-0.00002189,0.00004013,-0.00000221,-0.00001190,-0.00007548,0.0000
 0650,-0.00009346,0.00013793,-0.00000816,-0.00025490,-0.00036242,0.0000
 1436,-0.00063316,0.00133056,-0.00007448,-0.00261777,-0.00422802,0.0003
 4193,-0.01878074,0.02030300,-0.00107598,-0.23939456,0.13643875,-0.0068
 9603,-0.00000116,0.00000013,0.,0.00000019,-0.00000031,0.00000001,0.000
 00017,0.00000159,-0.00000011,0.00000004,0.00000014,-0.00000002,0.00000
 005,0.00000200,-0.00000013,0.00000011,0.00000037,-0.00000003,0.0000000
 3,0.00000225,-0.00000014,0.00000018,0.00000055,-0.00000004,0.,0.000002
 52,-0.00000015,0.00000016,0.00000068,-0.00000004,-0.00000006,0.0000028
 9,-0.00000016,0.00000017,0.00000095,-0.00000005,-0.00000010,0.00000335
 ,-0.00000019,0.00000018,0.00000118,-0.00000006,-0.00000015,0.00000394,
 -0.00000022,0.00000021,0.00000150,-0.00000008,-0.00000019,0.00000466,-
 0.00000027,0.00000026,0.00000180,-0.00000010,-0.00000030,0.00000560,-0
 .00000033,0.00000031,0.00000221,-0.00000012,-0.00000042,0.00000687,-0.
 00000040,0.00000047,0.00000270,-0.00000017,-0.00000055,0.00000862,-0.0
 0000049,0.00000090,0.00000289,-0.00000003,0.00000081,0.00001163,-0.000
 00070,0.00000142,-0.00000099,-0.00000042,0.00001599,0.00001729,-0.0000
 0099,0.00000531,-0.00007304,0.00000524,0.00013070,0.00012452,-0.000010
 05,0.00102769,-0.00009481,-0.00004367,0.00652254,-0.00510756,0.0002803
 2,0.25412455,-0.00000013,-0.00000013,-0.00000002,0.00000006,0.00000022
 ,-0.00000002,-0.00000011,-0.00000008,0.,-0.00000010,0.00000013,-0.0000
 0001,0.00000027,-0.00000004,0.,-0.00000058,0.00000010,-0.00000001,0.00
 000090,-0.00000001,-0.00000001,-0.00000083,-0.00000013,0.,0.00000102,0
 .00000015,-0.00000002,-0.00000129,-0.00000023,0.00000002,0.00000148,0.
 00000039,-0.00000003,-0.00000190,-0.00000039,0.00000003,0.00000234,0.0
 0000068,-0.00000006,-0.00000314,-0.00000066,0.00000005,0.00000386,0.00
 000123,-0.00000011,-0.00000519,-0.00000099,0.00000012,0.00000645,0.000
 00186,-0.00000018,-0.00000883,-0.00000153,-0.00000006,0.00001108,0.000
 00324,-0.00000025,-0.00001546,-0.00000249,0.00000102,0.00001960,0.0000
 0631,-0.00000076,-0.00002915,-0.00000532,-0.00000353,0.00003671,0.0000
 1560,-0.00000061,-0.00006754,-0.00001830,0.00001999,0.00006260,0.00006
 567,-0.00000879,-0.00028164,-0.00012945,-0.00007743,-0.00017624,0.0008
 0147,-0.00003321,-0.00211131,-0.00092145,0.00076523,-0.01261539,0.0106
 7989,-0.00031216,0.14094764,-0.16379682,0.00708543,0.00000015,-0.00000
 006,0.00000001,0.00000001,0.00000007,0.,0.00000003,-0.00000008,0.00000
 002,0.00000002,0.00000006,0.,-0.00000002,-0.00000003,0.,0.,0.00000006,
 0.,-0.00000005,0.00000003,0.,-0.00000003,0.00000004,0.,-0.00000008,0.0
 0000008,0.,-0.00000002,0.00000005,0.,-0.00000006,0.00000009,0.,-0.0000
 0002,0.00000001,0.,-0.00000007,0.00000013,0.,0.,0.00000002,0.,-0.00000
 008,0.00000019,0.,0.,-0.00000001,0.00000001,-0.00000014,0.00000029,0.,
 0.00000001,0.00000003,0.,-0.00000021,0.00000047,0.,0.00000006,0.000000
 05,0.00000008,-0.00000037,0.00000079,-0.00000001,0.00000018,0.00000009
 ,-0.00000015,-0.00000093,0.00000160,0.00000001,0.00000062,0.00000036,0
 .00000133,-0.00000172,0.00000346,-0.00000016,0.00000012,-0.00000161,-0
 .00000436,-0.00000654,0.00001063,0.00000092,0.00008511,-0.00000848,0.0
 0000871,-0.00037716,0.00039575,-0.00003845,0.00023460,0.00122904,-0.00
 049112,0.02274108,-0.01208580,0.00072247,-0.14844968,0.16375378,0.0000
 0004,-0.00000005,-0.00000037,-0.00000005,0.00000005,-0.00000012,0.0000
 0003,-0.00000005,-0.00000009,0.,0.00000004,-0.00000015,-0.00000002,-0.
 00000005,-0.00000013,0.00000004,0.00000005,-0.00000017,-0.00000007,-0.
 00000005,-0.00000007,0.00000007,0.00000008,-0.00000007,-0.00000005,-0.
 00000007,-0.00000002,0.00000008,0.00000006,-0.00000007,-0.00000009,-0.
 00000007,-0.00000006,0.00000012,0.00000012,-0.00000006,-0.00000011,-0.
 00000011,-0.00000013,0.00000017,0.00000013,-0.00000031,-0.00000019,-0.
 00000022,-0.00000014,0.00000030,0.00000027,0.00000043,-0.00000040,-0.0
 0000026,-0.00000046,0.00000049,0.00000005,-0.00000349,-0.00000062,-0.0
 0000028,0.00000030,0.00000099,0.00000111,0.00001287,-0.00000114,-0.000
 00078,-0.00000435,0.00000125,-0.00000346,-0.00006693,-0.00000204,-0.00
 000061,0.00000923,0.00000611,0.00002008,0.00030649,-0.00000355,-0.0000
 0932,-0.00007384,0.00000943,-0.00007692,-0.00144428,0.00001583,-0.0000
 4254,0.00023235,0.00021502,0.00077835,0.01156487,0.00089938,-0.0005162
 6,0.00419971,-0.00716667,0.00711337,-0.03153757,0.00000002,0.,0.000000
 14,0.,0.00000004,0.00000016,0.,0.,0.00000014,0.,0.,0.00000014,0.,0.,0.
 00000013,0.,0.,0.00000015,0.,0.,0.00000014,0.,0.,0.00000010,0.,-0.0000
 0002,0.00000005,0.,0.,0.00000003,0.,-0.00000001,0.00000005,0.,0.,0.000
 00007,0.,-0.00000002,0.00000010,0.,-0.00000001,0.00000011,0.,0.,0.0000
 0016,0.,0.00000001,0.00000024,0.00000001,-0.00000006,0.00000024,0.,-0.
 00000002,0.00000013,0.00000002,-0.00000004,0.00000041,0.,0.00000005,0.
 00000134,0.00000003,-0.00000006,0.00000055,-0.00000003,-0.00000016,-0.
 00000231,0.00000007,-0.00000004,0.00000175,0.00000010,0.00000127,0.000
 02264,0.00000010,-0.00000025,0.00000064,-0.00000048,-0.00000433,-0.000
 07400,0.00000045,0.00000077,0.00002524,-0.00000424,0.00000965,0.000144
 88,0.00002006,-0.00004152,-0.00028169,-0.00006342,-0.00048905,-0.00690
 158,-0.00139076,0.00089512,0.00225868,0.00746371,-0.00763395,0.0216077
 9\\0.00001937,0.00000633,-0.00000049,0.00000845,-0.00000616,0.00000032
 ,-0.00002027,0.00000735,-0.00000031,0.00001928,-0.00000702,0.00000031,
 -0.00002479,0.00000759,-0.00000029,0.00001972,-0.00000371,0.00000011,-
 0.00001703,0.00000558,-0.00000022,0.00001010,-0.00000309,0.00000013,-0
 .00000215,0.00000598,-0.00000034,-0.00000403,-0.00000370,0.00000025,0.
 00001267,0.00000645,-0.00000047,-0.00001714,-0.00000467,0.00000038,0.0
 0002343,0.00000664,-0.00000056,-0.00002565,-0.00000563,0.00000047,0.00
 002796,0.00000642,-0.00000059,-0.00002778,-0.00000634,0.00000052,0.000
 02555,0.00000580,-0.00000055,-0.00002305,-0.00000666,0.00000051,0.0000
 1675,0.00000486,-0.00000043,-0.00001223,-0.00000654,0.00000045,0.00000
 347,0.00000384,-0.00000026,0.00000256,-0.00000609,0.00000035,-0.000010
 65,0.00000315,-0.00000011,0.00001733,-0.00000567,0.00000025,-0.0000201
 8,0.00000367,-0.00000007,0.00002500,-0.00000759,0.00000033,-0.00001947
 ,0.00000693,-0.00000028,0.00002052,-0.00000733,0.00000031,-0.00000849,
 0.00000614,-0.00000028,-0.00001934,-0.00000630,0.00000052,-0.00000267,
 -0.00000322,0.00000021,-0.00000604,-0.00000149,0.00000012,-0.00000384,
 0.00000136,-0.00000006,0.00000503,-0.00000355,0.00000018,-0.00000547,0
 .00000394,-0.00000021,0.00000508,-0.00000391,0.00000019,-0.00000600,0.
 00000263,-0.00000013,0.00000475,-0.00000321,0.00000015,-0.00000450,0.0
 0000234,-0.00000012,0.00000326,-0.00000309,0.00000016,-0.00000272,0.00
 000235,-0.00000013,0.00000171,-0.00000301,0.00000017,-0.00000122,0.000
 00242,-0.00000013,0.00000057,-0.00000289,0.00000019,-0.00000030,0.0000
 0249,-0.00000012,0.00000008,-0.00000273,0.00000020,-0.00000008,0.00000
 260,-0.00000012,0.00000030,-0.00000257,0.00000019,-0.00000058,0.000002
 75,-0.00000012,0.00000123,-0.00000244,0.00000017,-0.00000170,0.0000029
 2,-0.00000014,0.00000274,-0.00000233,0.00000013,-0.00000326,0.00000308
 ,-0.00000017,0.00000453,-0.00000231,0.00000009,-0.00000475,0.00000327,
 -0.00000019,0.00000603,-0.00000261,0.00000009,-0.00000509,0.00000400,-
 0.00000024,0.00000550,-0.00000395,0.00000018,-0.00000504,0.00000359,-0
 .00000021,0.00000385,-0.00000136,0.00000004,0.00000603,0.00000149,-0.0
 0000014,0.00000268,0.00000324,-0.00000021\\\@


 EXPERIMENTALISTS THINK SILICON IS REALLY FUN TO USE
     ITS PLACE IN NOVEL COMPOUNDS IS CERTAIN TO AMUSE
 THEY SIT ALL DAY IN LABORATORIES MAKING ALL THIS SLUDGE
     "LOADED WITH THE SILICON THEY SAY", TO ME IT LOOKS LIKE FUDGE.
 FOR HAPPY THOUGH THEY BE WITH CRUD, I'D LIKE TO KNOW A LITTLE
      ABOUT THE PI BONDS ON THE EDGE AND SIGMAS IN THE MIDDLE.

 SO LETS DERIVE A WAVEFUNCTION.....6-31G*
     USE AN OPTIMAL GEOMETRY AND SEE WHERE ELECTRONS ARE.
 BUT WHAT OF CORRELATION?  ASKS THE WIRY LITTLE SKEPTIC.
     WE'LL THROW IN PERTURBATION AS AN ELECTRON ANTISEPTIC.
 AND WHEN THE PROGRAM GIVES US ANSWERS IN THEM WE CAN TRUST
     SINCE NOBODY CAN MAKE THE STUFF, WE HAVE NO CHOICE, WE MUST.

 SO THEORY GUYS HAVE GOT IT MADE, IN ROOMS FREE OF POLLUTION.
     INSTEAD OF PROBLEMS WITH THE REFLUX, THEY HAVE ONLY SOLUTIONS.
 AND WHEN THE FEDS ANNOUNCE THE LIST OF CARCINOGENIC TERRORS,
     THE THEORISTS SIT SAFELY AT THEIR TERMINALS FIXING ERRORS.
 IN OTHER WORDS, EXPERIMENTALISTS WILL LIKELY DIE OF CANCER
     FROM WORKING HARD YET FRUITLESSLY...TILL THEORY GIVES THE ANSWER.
          -- THOMAS A. HOLME, 1983
 Job cpu time:       0 days  3 hours 19 minutes 13.8 seconds.
 Elapsed time:       0 days  0 hours 49 minutes 49.2 seconds.
 File lengths (MBytes):  RWF=   2157 Int=      0 D2E=      0 Chk=     38 Scr=      1
 Normal termination of Gaussian 16 at Thu Nov  9 21:35:36 2023.
