 Entering Gaussian System, Link 0=g16
 Input=./com/16.com
 Output=./log/16.log
 Initial command:
 /home/shohei/gaussian/g16/l1.exe "/home/shohei/gaussian/scratch/Gau-26535.inp" -scrdir="/home/shohei/gaussian/scratch/"
 Entering Link 1 = /home/shohei/gaussian/g16/l1.exe PID=     26537.
  
 Copyright (c) 1988-2017, Gaussian, Inc.  All Rights Reserved.
  
 This is part of the Gaussian(R) 16 program.  It is based on
 the Gaussian(R) 09 system (copyright 2009, Gaussian, Inc.),
 the Gaussian(R) 03 system (copyright 2003, Gaussian, Inc.),
 the Gaussian(R) 98 system (copyright 1998, Gaussian, Inc.),
 the Gaussian(R) 94 system (copyright 1995, Gaussian, Inc.),
 the Gaussian 92(TM) system (copyright 1992, Gaussian, Inc.),
 the Gaussian 90(TM) system (copyright 1990, Gaussian, Inc.),
 the Gaussian 88(TM) system (copyright 1988, Gaussian, Inc.),
 the Gaussian 86(TM) system (copyright 1986, Carnegie Mellon
 University), and the Gaussian 82(TM) system (copyright 1983,
 Carnegie Mellon University). Gaussian is a federally registered
 trademark of Gaussian, Inc.
  
 This software contains proprietary and confidential information,
 including trade secrets, belonging to Gaussian, Inc.
  
 This software is provided under written license and may be
 used, copied, transmitted, or stored only in accord with that
 written license.
  
 The following legend is applicable only to US Government
 contracts under FAR:
  
                    RESTRICTED RIGHTS LEGEND
  
 Use, reproduction and disclosure by the US Government is
 subject to restrictions as set forth in subparagraphs (a)
 and (c) of the Commercial Computer Software - Restricted
 Rights clause in FAR 52.227-19.
  
 Gaussian, Inc.
 340 Quinnipiac St., Bldg. 40, Wallingford CT 06492
  
  
 ---------------------------------------------------------------
 Warning -- This program may not be used in any manner that
 competes with the business of Gaussian, Inc. or will provide
 assistance to any competitor of Gaussian, Inc.  The licensee
 of this program is prohibited from giving any competitor of
 Gaussian, Inc. access to this program.  By using this program,
 the user acknowledges that Gaussian, Inc. is engaged in the
 business of creating and licensing software in the field of
 computational chemistry and represents and warrants to the
 licensee that it is not a competitor of Gaussian, Inc. and that
 it will not use this program in any manner prohibited above.
 ---------------------------------------------------------------
  

 Cite this work as:
 Gaussian 16, Revision B.01,
 M. J. Frisch, G. W. Trucks, H. B. Schlegel, G. E. Scuseria, 
 M. A. Robb, J. R. Cheeseman, G. Scalmani, V. Barone, 
 G. A. Petersson, H. Nakatsuji, X. Li, M. Caricato, A. V. Marenich, 
 J. Bloino, B. G. Janesko, R. Gomperts, B. Mennucci, H. P. Hratchian, 
 J. V. Ortiz, A. F. Izmaylov, J. L. Sonnenberg, D. Williams-Young, 
 F. Ding, F. Lipparini, F. Egidi, J. Goings, B. Peng, A. Petrone, 
 T. Henderson, D. Ranasinghe, V. G. Zakrzewski, J. Gao, N. Rega, 
 G. Zheng, W. Liang, M. Hada, M. Ehara, K. Toyota, R. Fukuda, 
 J. Hasegawa, M. Ishida, T. Nakajima, Y. Honda, O. Kitao, H. Nakai, 
 T. Vreven, K. Throssell, J. A. Montgomery, Jr., J. E. Peralta, 
 F. Ogliaro, M. J. Bearpark, J. J. Heyd, E. N. Brothers, K. N. Kudin, 
 V. N. Staroverov, T. A. Keith, R. Kobayashi, J. Normand, 
 K. Raghavachari, A. P. Rendell, J. C. Burant, S. S. Iyengar, 
 J. Tomasi, M. Cossi, J. M. Millam, M. Klene, C. Adamo, R. Cammi, 
 J. W. Ochterski, R. L. Martin, K. Morokuma, O. Farkas, 
 J. B. Foresman, and D. J. Fox, Gaussian, Inc., Wallingford CT, 2016.
 
 ******************************************
 Gaussian 16:  EM64L-G16RevB.01 20-Dec-2017
                29-Oct-2023 
 ******************************************
 %chk=./chk/16.chk
 ---------------------------
 # B3LYP/6-31G(d,p) OPT FREQ
 ---------------------------
 1/18=20,19=15,26=3,38=1/1,3;
 2/9=110,12=2,17=6,18=5,40=1/2;
 3/5=1,6=6,7=101,11=2,25=1,30=1,71=1,74=-5/1,2,3;
 4//1;
 5/5=2,38=5/2;
 6/7=2,8=2,9=2,10=2,28=1/1;
 7//1,2,3,16;
 1/18=20,19=15,26=3/3(2);
 2/9=110/2;
 99//99;
 2/9=110/2;
 3/5=1,6=6,7=101,11=2,25=1,30=1,71=1,74=-5/1,2,3;
 4/5=5,16=3,69=1/1;
 5/5=2,38=5/2;
 7//1,2,3,16;
 1/18=20,19=15,26=3/3(-5);
 2/9=110/2;
 6/7=2,8=2,9=2,10=2,19=2,28=1/1;
 99/9=1/99;
 ------
 16poly
 ------
 Symbolic Z-matrix:
 Charge =  0 Multiplicity = 1
 C                    -6.84092   1.50244   1.91618 
 C                    -5.84233   1.76847   1.0712 
 C                    -4.52089   1.12508   1.22254 
 C                    -3.52435   1.39412   0.36905 
 C                    -2.20128   0.75118   0.5138 
 C                    -1.21188   1.01867  -0.34845 
 C                     0.11323   0.37693  -0.2168 
 C                     1.09016   0.64279  -1.09397 
 C                     2.41966   0.00401  -0.98378 
 C                     3.37597   0.276    -1.88884 
 C                     4.74554  -0.30236  -1.89982 
 C                     5.22784  -1.1736   -0.98796 
 C                     6.60037  -1.75559  -1.0106 
 C                     7.52794  -1.50007  -1.95762 
 C                     8.89819  -2.07764  -1.99913 
 C                     9.41686  -2.92728  -1.08673 
 C                     10.79256  -3.49962  -1.14585 
 C                     11.68505  -3.25666  -2.12911 
 C                     13.05763  -3.82279  -2.19805 
 C                     13.61331  -4.64359  -1.28935 
 C                     14.99591  -5.13209  -1.48287 
 C                     15.58612  -5.93979  -0.59158 
 C                     16.97086  -6.40918  -0.80916 
 C                     17.58544  -7.20577   0.07526 
 C                     18.97242  -7.65958  -0.16008 
 C                     19.60601  -8.44601   0.71992 
 C                     20.99461  -8.88807   0.47228 
 C                     21.64124  -9.66649   1.3499 
 C                     23.0308  -10.1011   1.09497 
 C                     23.68474  -10.87437   1.97165 
 C                     25.07421  -11.30505   1.71308 
 C                     25.7324  -12.07349   2.58393 
 H                    -6.71045   0.80571   2.73893 
 H                    -6.01307   2.47137   0.26005 
 H                    -4.36046   0.42362   2.03812 
 H                    -3.68779   2.09504  -0.44662 
 H                    -2.03419   0.05118   1.32924 
 H                    -1.38337   1.71748  -1.1643 
 H                     0.29118  -0.32052   0.59848 
 H                     0.90372   1.33889  -1.90892 
 H                     2.5953   -0.68487  -0.16626 
 H                     3.14791   0.97097  -2.69299 
 H                     5.36452   0.02975  -2.72132 
 H                     4.60327  -1.49838  -0.16595 
 H                     6.82747  -2.43001  -0.19548 
 H                     7.30164  -0.83109  -2.77607 
 H                     9.48868  -1.76122  -2.8474 
 H                     8.82512  -3.23879  -0.23612 
 H                     11.05618  -4.1544   -0.32524 
 H                     11.42804  -2.60786  -2.95452 
 H                     13.64591  -3.53332  -3.06506 
 H                     13.07099  -4.95946  -0.40621 
 H                     15.54454  -4.82367  -2.37018 
 H                     15.04748  -6.25158   0.30013 
 H                     17.49938  -6.09586  -1.70684 
 H                     17.06406  -7.52053   0.9762 
 H                     19.48576  -7.34396  -1.0657 
 H                     19.09796  -8.76227   1.62797 
 H                     21.49716  -8.5716   -0.43904 
 H                     21.14205  -9.9831    2.26278 
 H                     23.52703  -9.78474   0.18016 
 H                     23.19093  -11.19109   2.88748 
 H                     25.57677  -10.99508   0.80067 
 H                     25.26533  -12.40381   3.50702 
 H                     26.75269  -12.37832   2.37451 
 H                    -7.80387   1.98586   1.78644 
 

 GradGradGradGradGradGradGradGradGradGradGradGradGradGradGradGradGradGrad
 Berny optimization.
 Initialization pass.
                           ----------------------------
                           !    Initial Parameters    !
                           ! (Angstroms and Degrees)  !
 --------------------------                            --------------------------
 ! Name  Definition              Value          Derivative Info.                !
 --------------------------------------------------------------------------------
 ! R1    R(1,2)                  1.3349         estimate D2E/DX2                !
 ! R2    R(1,33)                 1.086          estimate D2E/DX2                !
 ! R3    R(1,66)                 1.0853         estimate D2E/DX2                !
 ! R4    R(2,3)                  1.4775         estimate D2E/DX2                !
 ! R5    R(2,34)                 1.0868         estimate D2E/DX2                !
 ! R6    R(3,4)                  1.3394         estimate D2E/DX2                !
 ! R7    R(3,35)                 1.0876         estimate D2E/DX2                !
 ! R8    R(4,5)                  1.4781         estimate D2E/DX2                !
 ! R9    R(4,36)                 1.0878         estimate D2E/DX2                !
 ! R10   R(5,6)                  1.3394         estimate D2E/DX2                !
 ! R11   R(5,37)                 1.0876         estimate D2E/DX2                !
 ! R12   R(6,7)                  1.4782         estimate D2E/DX2                !
 ! R13   R(6,38)                 1.0878         estimate D2E/DX2                !
 ! R14   R(7,8)                  1.3396         estimate D2E/DX2                !
 ! R15   R(7,39)                 1.0875         estimate D2E/DX2                !
 ! R16   R(8,9)                  1.4791         estimate D2E/DX2                !
 ! R17   R(8,40)                 1.0879         estimate D2E/DX2                !
 ! R18   R(9,10)                 1.3445         estimate D2E/DX2                !
 ! R19   R(9,41)                 1.0834         estimate D2E/DX2                !
 ! R20   R(10,11)                1.4867         estimate D2E/DX2                !
 ! R21   R(10,42)                1.087          estimate D2E/DX2                !
 ! R22   R(11,12)                1.3502         estimate D2E/DX2                !
 ! R23   R(11,43)                1.0809         estimate D2E/DX2                !
 ! R24   R(12,13)                1.491          estimate D2E/DX2                !
 ! R25   R(12,44)                1.0822         estimate D2E/DX2                !
 ! R26   R(13,14)                1.35           estimate D2E/DX2                !
 ! R27   R(13,45)                1.0821         estimate D2E/DX2                !
 ! R28   R(14,15)                1.4876         estimate D2E/DX2                !
 ! R29   R(14,46)                1.081          estimate D2E/DX2                !
 ! R30   R(15,16)                1.3503         estimate D2E/DX2                !
 ! R31   R(15,47)                1.0809         estimate D2E/DX2                !
 ! R32   R(16,17)                1.4912         estimate D2E/DX2                !
 ! R33   R(16,48)                1.082          estimate D2E/DX2                !
 ! R34   R(17,18)                1.35           estimate D2E/DX2                !
 ! R35   R(17,49)                1.0824         estimate D2E/DX2                !
 ! R36   R(18,19)                1.4863         estimate D2E/DX2                !
 ! R37   R(18,50)                1.0809         estimate D2E/DX2                !
 ! R38   R(19,20)                1.3447         estimate D2E/DX2                !
 ! R39   R(19,51)                1.087          estimate D2E/DX2                !
 ! R40   R(20,21)                1.4791         estimate D2E/DX2                !
 ! R41   R(20,52)                1.0834         estimate D2E/DX2                !
 ! R42   R(21,22)                1.3398         estimate D2E/DX2                !
 ! R43   R(21,53)                1.0879         estimate D2E/DX2                !
 ! R44   R(22,23)                1.4782         estimate D2E/DX2                !
 ! R45   R(22,54)                1.0874         estimate D2E/DX2                !
 ! R46   R(23,24)                1.3396         estimate D2E/DX2                !
 ! R47   R(23,55)                1.0878         estimate D2E/DX2                !
 ! R48   R(24,25)                1.4782         estimate D2E/DX2                !
 ! R49   R(24,56)                1.0875         estimate D2E/DX2                !
 ! R50   R(25,26)                1.3395         estimate D2E/DX2                !
 ! R51   R(25,57)                1.0878         estimate D2E/DX2                !
 ! R52   R(26,27)                1.4782         estimate D2E/DX2                !
 ! R53   R(26,58)                1.0875         estimate D2E/DX2                !
 ! R54   R(27,28)                1.3395         estimate D2E/DX2                !
 ! R55   R(27,59)                1.0878         estimate D2E/DX2                !
 ! R56   R(28,29)                1.4781         estimate D2E/DX2                !
 ! R57   R(28,60)                1.0876         estimate D2E/DX2                !
 ! R58   R(29,30)                1.3395         estimate D2E/DX2                !
 ! R59   R(29,61)                1.0878         estimate D2E/DX2                !
 ! R60   R(30,31)                1.4775         estimate D2E/DX2                !
 ! R61   R(30,62)                1.0876         estimate D2E/DX2                !
 ! R62   R(31,32)                1.3349         estimate D2E/DX2                !
 ! R63   R(31,63)                1.0868         estimate D2E/DX2                !
 ! R64   R(32,64)                1.086          estimate D2E/DX2                !
 ! R65   R(32,65)                1.0853         estimate D2E/DX2                !
 ! A1    A(2,1,33)             121.1675         estimate D2E/DX2                !
 ! A2    A(2,1,66)             119.9544         estimate D2E/DX2                !
 ! A3    A(33,1,66)            118.8781         estimate D2E/DX2                !
 ! A4    A(1,2,3)              121.1595         estimate D2E/DX2                !
 ! A5    A(1,2,34)             118.9337         estimate D2E/DX2                !
 ! A6    A(3,2,34)             119.9068         estimate D2E/DX2                !
 ! A7    A(2,3,4)              120.8434         estimate D2E/DX2                !
 ! A8    A(2,3,35)             119.3129         estimate D2E/DX2                !
 ! A9    A(4,3,35)             119.8436         estimate D2E/DX2                !
 ! A10   A(3,4,5)              121.0784         estimate D2E/DX2                !
 ! A11   A(3,4,36)             119.7            estimate D2E/DX2                !
 ! A12   A(5,4,36)             119.2214         estimate D2E/DX2                !
 ! A13   A(4,5,6)              120.7503         estimate D2E/DX2                !
 ! A14   A(4,5,37)             119.3995         estimate D2E/DX2                !
 ! A15   A(6,5,37)             119.8499         estimate D2E/DX2                !
 ! A16   A(5,6,7)              121.2085         estimate D2E/DX2                !
 ! A17   A(5,6,38)             119.6476         estimate D2E/DX2                !
 ! A18   A(7,6,38)             119.1434         estimate D2E/DX2                !
 ! A19   A(6,7,8)              120.615          estimate D2E/DX2                !
 ! A20   A(6,7,39)             119.4627         estimate D2E/DX2                !
 ! A21   A(8,7,39)             119.9216         estimate D2E/DX2                !
 ! A22   A(7,8,9)              121.4009         estimate D2E/DX2                !
 ! A23   A(7,8,40)             119.5077         estimate D2E/DX2                !
 ! A24   A(9,8,40)             119.0907         estimate D2E/DX2                !
 ! A25   A(8,9,10)             120.121          estimate D2E/DX2                !
 ! A26   A(8,9,41)             118.46           estimate D2E/DX2                !
 ! A27   A(10,9,41)            121.4181         estimate D2E/DX2                !
 ! A28   A(9,10,11)            125.5566         estimate D2E/DX2                !
 ! A29   A(9,10,42)            118.5602         estimate D2E/DX2                !
 ! A30   A(11,10,42)           115.8822         estimate D2E/DX2                !
 ! A31   A(10,11,12)           125.1049         estimate D2E/DX2                !
 ! A32   A(10,11,43)           114.4325         estimate D2E/DX2                !
 ! A33   A(12,11,43)           120.4626         estimate D2E/DX2                !
 ! A34   A(11,12,13)           124.7797         estimate D2E/DX2                !
 ! A35   A(11,12,44)           120.0289         estimate D2E/DX2                !
 ! A36   A(13,12,44)           115.1914         estimate D2E/DX2                !
 ! A37   A(12,13,14)           124.6992         estimate D2E/DX2                !
 ! A38   A(12,13,45)           115.1537         estimate D2E/DX2                !
 ! A39   A(14,13,45)           120.1461         estimate D2E/DX2                !
 ! A40   A(13,14,15)           125.379          estimate D2E/DX2                !
 ! A41   A(13,14,46)           120.2912         estimate D2E/DX2                !
 ! A42   A(15,14,46)           114.3291         estimate D2E/DX2                !
 ! A43   A(14,15,16)           125.398          estimate D2E/DX2                !
 ! A44   A(14,15,47)           114.2957         estimate D2E/DX2                !
 ! A45   A(16,15,47)           120.3063         estimate D2E/DX2                !
 ! A46   A(15,16,17)           124.6858         estimate D2E/DX2                !
 ! A47   A(15,16,48)           120.1508         estimate D2E/DX2                !
 ! A48   A(17,16,48)           115.1633         estimate D2E/DX2                !
 ! A49   A(16,17,18)           124.7309         estimate D2E/DX2                !
 ! A50   A(16,17,49)           115.2656         estimate D2E/DX2                !
 ! A51   A(18,17,49)           120.0033         estimate D2E/DX2                !
 ! A52   A(17,18,19)           125.1525         estimate D2E/DX2                !
 ! A53   A(17,18,50)           120.4673         estimate D2E/DX2                !
 ! A54   A(19,18,50)           114.3801         estimate D2E/DX2                !
 ! A55   A(18,19,20)           125.6446         estimate D2E/DX2                !
 ! A56   A(18,19,51)           115.807          estimate D2E/DX2                !
 ! A57   A(20,19,51)           118.5483         estimate D2E/DX2                !
 ! A58   A(19,20,21)           119.9646         estimate D2E/DX2                !
 ! A59   A(19,20,52)           121.4626         estimate D2E/DX2                !
 ! A60   A(21,20,52)           118.5726         estimate D2E/DX2                !
 ! A61   A(20,21,22)           121.5907         estimate D2E/DX2                !
 ! A62   A(20,21,53)           118.9805         estimate D2E/DX2                !
 ! A63   A(22,21,53)           119.4286         estimate D2E/DX2                !
 ! A64   A(21,22,23)           120.4089         estimate D2E/DX2                !
 ! A65   A(21,22,54)           120.0097         estimate D2E/DX2                !
 ! A66   A(23,22,54)           119.5811         estimate D2E/DX2                !
 ! A67   A(22,23,24)           121.4275         estimate D2E/DX2                !
 ! A68   A(22,23,55)           119.0208         estimate D2E/DX2                !
 ! A69   A(24,23,55)           119.5514         estimate D2E/DX2                !
 ! A70   A(23,24,25)           120.5259         estimate D2E/DX2                !
 ! A71   A(23,24,56)           119.9429         estimate D2E/DX2                !
 ! A72   A(25,24,56)           119.5309         estimate D2E/DX2                !
 ! A73   A(24,25,26)           121.2961         estimate D2E/DX2                !
 ! A74   A(24,25,57)           119.095          estimate D2E/DX2                !
 ! A75   A(26,25,57)           119.6087         estimate D2E/DX2                !
 ! A76   A(25,26,27)           120.6541         estimate D2E/DX2                !
 ! A77   A(25,26,58)           119.888          estimate D2E/DX2                !
 ! A78   A(27,26,58)           119.4577         estimate D2E/DX2                !
 ! A79   A(26,27,28)           121.1658         estimate D2E/DX2                !
 ! A80   A(26,27,59)           119.1676         estimate D2E/DX2                !
 ! A81   A(28,27,59)           119.6665         estimate D2E/DX2                !
 ! A82   A(27,28,29)           120.7769         estimate D2E/DX2                !
 ! A83   A(27,28,60)           119.8383         estimate D2E/DX2                !
 ! A84   A(29,28,60)           119.3848         estimate D2E/DX2                !
 ! A85   A(28,29,30)           121.0534         estimate D2E/DX2                !
 ! A86   A(28,29,61)           119.2362         estimate D2E/DX2                !
 ! A87   A(30,29,61)           119.7104         estimate D2E/DX2                !
 ! A88   A(29,30,31)           120.8548         estimate D2E/DX2                !
 ! A89   A(29,30,62)           119.8394         estimate D2E/DX2                !
 ! A90   A(31,30,62)           119.3058         estimate D2E/DX2                !
 ! A91   A(30,31,32)           121.1512         estimate D2E/DX2                !
 ! A92   A(30,31,63)           119.9118         estimate D2E/DX2                !
 ! A93   A(32,31,63)           118.937          estimate D2E/DX2                !
 ! A94   A(31,32,64)           121.1674         estimate D2E/DX2                !
 ! A95   A(31,32,65)           119.9564         estimate D2E/DX2                !
 ! A96   A(64,32,65)           118.8762         estimate D2E/DX2                !
 ! D1    D(33,1,2,3)             0.0091         estimate D2E/DX2                !
 ! D2    D(33,1,2,34)          179.9671         estimate D2E/DX2                !
 ! D3    D(66,1,2,3)          -179.9686         estimate D2E/DX2                !
 ! D4    D(66,1,2,34)           -0.0106         estimate D2E/DX2                !
 ! D5    D(1,2,3,4)            179.8327         estimate D2E/DX2                !
 ! D6    D(1,2,3,35)            -0.0793         estimate D2E/DX2                !
 ! D7    D(34,2,3,4)            -0.1249         estimate D2E/DX2                !
 ! D8    D(34,2,3,35)          179.9631         estimate D2E/DX2                !
 ! D9    D(2,3,4,5)           -179.8624         estimate D2E/DX2                !
 ! D10   D(2,3,4,36)             0.0055         estimate D2E/DX2                !
 ! D11   D(35,3,4,5)             0.0492         estimate D2E/DX2                !
 ! D12   D(35,3,4,36)          179.9171         estimate D2E/DX2                !
 ! D13   D(3,4,5,6)            179.5787         estimate D2E/DX2                !
 ! D14   D(3,4,5,37)            -0.2312         estimate D2E/DX2                !
 ! D15   D(36,4,5,6)            -0.2899         estimate D2E/DX2                !
 ! D16   D(36,4,5,37)          179.9003         estimate D2E/DX2                !
 ! D17   D(4,5,6,7)           -179.7235         estimate D2E/DX2                !
 ! D18   D(4,5,6,38)             0.0405         estimate D2E/DX2                !
 ! D19   D(37,5,6,7)             0.0855         estimate D2E/DX2                !
 ! D20   D(37,5,6,38)          179.8495         estimate D2E/DX2                !
 ! D21   D(5,6,7,8)            179.3162         estimate D2E/DX2                !
 ! D22   D(5,6,7,39)            -0.397          estimate D2E/DX2                !
 ! D23   D(38,6,7,8)            -0.449          estimate D2E/DX2                !
 ! D24   D(38,6,7,39)          179.8378         estimate D2E/DX2                !
 ! D25   D(6,7,8,9)           -179.6044         estimate D2E/DX2                !
 ! D26   D(6,7,8,40)             0.0778         estimate D2E/DX2                !
 ! D27   D(39,7,8,9)             0.1075         estimate D2E/DX2                !
 ! D28   D(39,7,8,40)          179.7897         estimate D2E/DX2                !
 ! D29   D(7,8,9,10)           179.114          estimate D2E/DX2                !
 ! D30   D(7,8,9,41)            -0.5281         estimate D2E/DX2                !
 ! D31   D(40,8,9,10)           -0.5695         estimate D2E/DX2                !
 ! D32   D(40,8,9,41)          179.7884         estimate D2E/DX2                !
 ! D33   D(8,9,10,11)         -179.5366         estimate D2E/DX2                !
 ! D34   D(8,9,10,42)            0.0859         estimate D2E/DX2                !
 ! D35   D(41,9,10,11)           0.0947         estimate D2E/DX2                !
 ! D36   D(41,9,10,42)         179.7172         estimate D2E/DX2                !
 ! D37   D(9,10,11,12)          -0.8657         estimate D2E/DX2                !
 ! D38   D(9,10,11,43)         179.057          estimate D2E/DX2                !
 ! D39   D(42,10,11,12)        179.5028         estimate D2E/DX2                !
 ! D40   D(42,10,11,43)         -0.5744         estimate D2E/DX2                !
 ! D41   D(10,11,12,13)        179.6124         estimate D2E/DX2                !
 ! D42   D(10,11,12,44)         -0.329          estimate D2E/DX2                !
 ! D43   D(43,11,12,13)         -0.306          estimate D2E/DX2                !
 ! D44   D(43,11,12,44)        179.7526         estimate D2E/DX2                !
 ! D45   D(11,12,13,14)         -1.0457         estimate D2E/DX2                !
 ! D46   D(11,12,13,45)        179.311          estimate D2E/DX2                !
 ! D47   D(44,12,13,14)        178.8982         estimate D2E/DX2                !
 ! D48   D(44,12,13,45)         -0.745          estimate D2E/DX2                !
 ! D49   D(12,13,14,15)       -179.6451         estimate D2E/DX2                !
 ! D50   D(12,13,14,46)          0.023          estimate D2E/DX2                !
 ! D51   D(45,13,14,15)         -0.0186         estimate D2E/DX2                !
 ! D52   D(45,13,14,46)        179.6495         estimate D2E/DX2                !
 ! D53   D(13,14,15,16)         -0.8787         estimate D2E/DX2                !
 ! D54   D(13,14,15,47)        179.1555         estimate D2E/DX2                !
 ! D55   D(46,14,15,16)        179.4359         estimate D2E/DX2                !
 ! D56   D(46,14,15,47)         -0.53           estimate D2E/DX2                !
 ! D57   D(14,15,16,17)        179.8428         estimate D2E/DX2                !
 ! D58   D(14,15,16,48)         -0.2471         estimate D2E/DX2                !
 ! D59   D(47,15,16,17)         -0.1932         estimate D2E/DX2                !
 ! D60   D(47,15,16,48)        179.7169         estimate D2E/DX2                !
 ! D61   D(15,16,17,18)         -1.0632         estimate D2E/DX2                !
 ! D62   D(15,16,17,49)        179.1333         estimate D2E/DX2                !
 ! D63   D(48,16,17,18)        179.0227         estimate D2E/DX2                !
 ! D64   D(48,16,17,49)         -0.7808         estimate D2E/DX2                !
 ! D65   D(16,17,18,19)       -179.9425         estimate D2E/DX2                !
 ! D66   D(16,17,18,50)         -0.0915         estimate D2E/DX2                !
 ! D67   D(49,17,18,19)         -0.1477         estimate D2E/DX2                !
 ! D68   D(49,17,18,50)        179.7034         estimate D2E/DX2                !
 ! D69   D(17,18,19,20)         -0.7521         estimate D2E/DX2                !
 ! D70   D(17,18,19,51)        179.3925         estimate D2E/DX2                !
 ! D71   D(50,18,19,20)        179.3889         estimate D2E/DX2                !
 ! D72   D(50,18,19,51)         -0.4665         estimate D2E/DX2                !
 ! D73   D(18,19,20,21)       -179.8801         estimate D2E/DX2                !
 ! D74   D(18,19,20,52)         -0.0531         estimate D2E/DX2                !
 ! D75   D(51,19,20,21)         -0.0282         estimate D2E/DX2                !
 ! D76   D(51,19,20,52)        179.7988         estimate D2E/DX2                !
 ! D77   D(19,20,21,22)        179.3113         estimate D2E/DX2                !
 ! D78   D(19,20,21,53)         -0.516          estimate D2E/DX2                !
 ! D79   D(52,20,21,22)         -0.5207         estimate D2E/DX2                !
 ! D80   D(52,20,21,53)        179.652          estimate D2E/DX2                !
 ! D81   D(20,21,22,23)       -179.8118         estimate D2E/DX2                !
 ! D82   D(20,21,22,54)         -0.0067         estimate D2E/DX2                !
 ! D83   D(53,21,22,23)          0.0148         estimate D2E/DX2                !
 ! D84   D(53,21,22,54)        179.8199         estimate D2E/DX2                !
 ! D85   D(21,22,23,24)        179.3001         estimate D2E/DX2                !
 ! D86   D(21,22,23,55)         -0.5083         estimate D2E/DX2                !
 ! D87   D(54,22,23,24)         -0.5059         estimate D2E/DX2                !
 ! D88   D(54,22,23,55)        179.6857         estimate D2E/DX2                !
 ! D89   D(22,23,24,25)       -179.7868         estimate D2E/DX2                !
 ! D90   D(22,23,24,56)          0.0172         estimate D2E/DX2                !
 ! D91   D(55,23,24,25)          0.0206         estimate D2E/DX2                !
 ! D92   D(55,23,24,56)        179.8246         estimate D2E/DX2                !
 ! D93   D(23,24,25,26)        179.3694         estimate D2E/DX2                !
 ! D94   D(23,24,25,57)         -0.4565         estimate D2E/DX2                !
 ! D95   D(56,24,25,26)         -0.4354         estimate D2E/DX2                !
 ! D96   D(56,24,25,57)        179.7387         estimate D2E/DX2                !
 ! D97   D(24,25,26,27)       -179.8096         estimate D2E/DX2                !
 ! D98   D(24,25,26,58)          0.0263         estimate D2E/DX2                !
 ! D99   D(57,25,26,27)          0.0154         estimate D2E/DX2                !
 ! D100  D(57,25,26,58)        179.8513         estimate D2E/DX2                !
 ! D101  D(25,26,27,28)        179.5094         estimate D2E/DX2                !
 ! D102  D(25,26,27,59)         -0.361          estimate D2E/DX2                !
 ! D103  D(58,26,27,28)         -0.3272         estimate D2E/DX2                !
 ! D104  D(58,26,27,59)        179.8024         estimate D2E/DX2                !
 ! D105  D(26,27,28,29)       -179.8656         estimate D2E/DX2                !
 ! D106  D(26,27,28,60)          0.023          estimate D2E/DX2                !
 ! D107  D(59,27,28,29)          0.0041         estimate D2E/DX2                !
 ! D108  D(59,27,28,60)        179.8928         estimate D2E/DX2                !
 ! D109  D(27,28,29,30)        179.6885         estimate D2E/DX2                !
 ! D110  D(27,28,29,61)         -0.2388         estimate D2E/DX2                !
 ! D111  D(60,28,29,30)         -0.2006         estimate D2E/DX2                !
 ! D112  D(60,28,29,61)        179.8721         estimate D2E/DX2                !
 ! D113  D(28,29,30,31)       -179.9333         estimate D2E/DX2                !
 ! D114  D(28,29,30,62)          0.0122         estimate D2E/DX2                !
 ! D115  D(61,29,30,31)         -0.0063         estimate D2E/DX2                !
 ! D116  D(61,29,30,62)        179.9391         estimate D2E/DX2                !
 ! D117  D(29,30,31,32)        179.8659         estimate D2E/DX2                !
 ! D118  D(29,30,31,63)         -0.1116         estimate D2E/DX2                !
 ! D119  D(62,30,31,32)         -0.0798         estimate D2E/DX2                !
 ! D120  D(62,30,31,63)        179.9427         estimate D2E/DX2                !
 ! D121  D(30,31,32,64)         -0.0012         estimate D2E/DX2                !
 ! D122  D(30,31,32,65)       -179.9846         estimate D2E/DX2                !
 ! D123  D(63,31,32,64)        179.9765         estimate D2E/DX2                !
 ! D124  D(63,31,32,65)         -0.0069         estimate D2E/DX2                !
 --------------------------------------------------------------------------------
 Trust Radius=3.00D-01 FncErr=1.00D-07 GrdErr=1.00D-06 EigMax=2.50D+02 EigMin=1.00D-04
 Number of steps in this run=    295 maximum allowed number of steps=    396.
 GradGradGradGradGradGradGradGradGradGradGradGradGradGradGradGradGradGrad

 Stoichiometry    C32H34
 Framework group  C1[X(C32H34)]
 Deg. of freedom   192
 Full point group                 C1      NOp   1
 Largest Abelian subgroup         C1      NOp   1
 Largest concise Abelian subgroup C1      NOp   1
                         Standard orientation:                         
 ---------------------------------------------------------------------
 Center     Atomic      Atomic             Coordinates (Angstroms)
 Number     Number       Type             X           Y           Z
 ---------------------------------------------------------------------
      1          6           0      -17.410984    3.288137    0.149846
      2          6           0      -16.628763    2.208818    0.077971
      3          6           0      -15.156314    2.330870    0.071246
      4          6           0      -14.377442    1.243436    0.002282
      5          6           0      -12.903871    1.359331   -0.001757
      6          6           0      -12.131187    0.266990   -0.062483
      7          6           0      -10.656633    0.370799   -0.061034
      8          6           0       -9.895172   -0.730302   -0.108420
      9          6           0       -8.418444   -0.647038   -0.099108
     10          6           0       -7.679167   -1.769627   -0.129556
     11          6           0       -6.193639   -1.827172   -0.114663
     12          6           0       -5.375238   -0.753627   -0.084910
     13          6           0       -3.885895   -0.819935   -0.061860
     14          6           0       -3.167631   -1.962925   -0.047586
     15          6           0       -1.682731   -2.046699   -0.017041
     16          6           0       -0.839656   -0.991905   -0.016082
     17          6           0        0.647612   -1.094325    0.018151
     18          6           0        1.337662   -2.253289    0.073052
     19          6           0        2.819277   -2.366236    0.108759
     20          6           0        3.684599   -1.337415    0.077389
     21          6           0        5.140505   -1.595181    0.116793
     22          6           0        6.031674   -0.595647    0.073532
     23          6           0        7.481161   -0.883421    0.110380
     24          6           0        8.389978    0.099096    0.054338
     25          6           0        9.834741   -0.211712    0.087948
     26          6           0       10.756774    0.757612    0.020268
     27          6           0       12.197927    0.430373    0.050869
     28          6           0       13.128624    1.390672   -0.025946
     29          6           0       14.567455    1.053464    0.002482
     30          6           0       15.502765    2.008726   -0.080182
     31          6           0       16.939823    1.666566   -0.052808
     32          6           0       17.876905    2.613561   -0.137453
     33          1           0      -16.987399    4.286571    0.205270
     34          1           0      -17.091353    1.226814    0.024449
     35          1           0      -14.703611    3.318375    0.124574
     36          1           0      -14.832680    0.256837   -0.049604
     37          1           0      -12.445662    2.344417    0.048372
     38          1           0      -12.592957   -0.716806   -0.110043
     39          1           0      -10.189504    1.351897   -0.016306
     40          1           0      -10.369528   -1.708443   -0.149554
     41          1           0       -7.956788    0.332349   -0.061497
     42          1           0       -8.190864   -2.728136   -0.162248
     43          1           0       -5.784824   -2.827665   -0.128435
     44          1           0       -5.792086    0.245077   -0.075315
     45          1           0       -3.382980    0.138077   -0.050765
     46          1           0       -3.667747   -2.921288   -0.052912
     47          1           0       -1.294548   -3.055259    0.005021
     48          1           0       -1.230871    0.016540   -0.042825
     49          1           0        1.176286   -0.149989   -0.000749
     50          1           0        0.817289   -3.200353    0.097067
     51          1           0        3.215657   -3.376958    0.162613
     52          1           0        3.341378   -0.311360    0.020562
     53          1           0        5.492362   -2.622652    0.179636
     54          1           0        5.690458    0.434758    0.007713
     55          1           0        7.812314   -1.917164    0.181487
     56          1           0        8.066044    1.134559   -0.019704
     57          1           0       10.150824   -1.249596    0.166436
     58          1           0       10.445858    1.796582   -0.060731
     59          1           0       12.503617   -0.610129    0.135251
     60          1           0       12.826122    2.431751   -0.112144
     61          1           0       14.867300    0.011596    0.090870
     62          1           0       15.205311    3.051044   -0.169618
     63          1           0       17.248094    0.628302    0.037208
     64          1           0       17.609622    3.662170   -0.228840
     65          1           0       18.926982    2.340341   -0.115672
     66          1           0      -18.490409    3.175771    0.153925
 ---------------------------------------------------------------------
 Rotational constants (GHZ):           0.4636770           0.0107118           0.0104712
 Standard basis: 6-31G(d,p) (6D, 7F)
 There are   650 symmetry adapted cartesian basis functions of A   symmetry.
 There are   650 symmetry adapted basis functions of A   symmetry.
   650 basis functions,  1134 primitive gaussians,   650 cartesian basis functions
   113 alpha electrons      113 beta electrons
       nuclear repulsion energy      2072.6686689969 Hartrees.
 NAtoms=   66 NActive=   66 NUniq=   66 SFac= 1.00D+00 NAtFMM=   60 NAOKFM=T Big=T
 Integral buffers will be    131072 words long.
 Raffenetti 2 integral format.
 Two-electron integral symmetry is turned on.
 One-electron integrals computed using PRISM.
 NBasis=   650 RedAO= T EigKep=  7.30D-04  NBF=   650
 NBsUse=   650 1.00D-06 EigRej= -1.00D+00 NBFU=   650
 ExpMin= 1.61D-01 ExpMax= 3.05D+03 ExpMxC= 4.57D+02 IAcc=3 IRadAn=         5 AccDes= 0.00D+00
 Harris functional with IExCor=  402 and IRadAn=       5 diagonalized for initial guess.
 HarFok:  IExCor=  402 AccDes= 0.00D+00 IRadAn=         5 IDoV= 1 UseB2=F ITyADJ=14
 ICtDFT=  3500011 ScaDFX=  1.000000  1.000000  1.000000  1.000000
 FoFCou: FMM=F IPFlag=           0 FMFlag=      100000 FMFlg1=        2001
         NFxFlg=           0 DoJE=T BraDBF=F KetDBF=T FulRan=T
         wScrn=  0.000000 ICntrl=       500 IOpCl=  0 I1Cent=   200000004 NGrid=           0
         NMat0=    1 NMatS0=      1 NMatT0=    0 NMatD0=    1 NMtDS0=    0 NMtDT0=    0
 Petite list used in FoFCou.
 Requested convergence on RMS density matrix=1.00D-08 within 128 cycles.
 Requested convergence on MAX density matrix=1.00D-06.
 Requested convergence on             energy=1.00D-06.
 No special actions if energy rises.
 Integral accuracy reduced to 1.0D-05 until final iterations.
 Initial convergence to 1.0D-05 achieved.  Increase integral accuracy.
 SCF Done:  E(RB3LYP) =  -1239.69019902     A.U. after   13 cycles
            NFock= 13  Conv=0.73D-08     -V/T= 2.0101

 **********************************************************************

            Population analysis using the SCF Density.

 **********************************************************************

 Orbital symmetries:
       Occupied  (A) (A) (A) (A) (A) (A) (A) (A) (A) (A) (A) (A)
                 (A) (A) (A) (A) (A) (A) (A) (A) (A) (A) (A) (A)
                 (A) (A) (A) (A) (A) (A) (A) (A) (A) (A) (A) (A)
                 (A) (A) (A) (A) (A) (A) (A) (A) (A) (A) (A) (A)
                 (A) (A) (A) (A) (A) (A) (A) (A) (A) (A) (A) (A)
                 (A) (A) (A) (A) (A) (A) (A) (A) (A) (A) (A) (A)
                 (A) (A) (A) (A) (A) (A) (A) (A) (A) (A) (A) (A)
                 (A) (A) (A) (A) (A) (A) (A) (A) (A) (A) (A) (A)
                 (A) (A) (A) (A) (A) (A) (A) (A) (A) (A) (A) (A)
                 (A) (A) (A) (A) (A)
       Virtual   (A) (A) (A) (A) (A) (A) (A) (A) (A) (A) (A) (A)
                 (A) (A) (A) (A) (A) (A) (A) (A) (A) (A) (A) (A)
                 (A) (A) (A) (A) (A) (A) (A) (A) (A) (A) (A) (A)
                 (A) (A) (A) (A) (A) (A) (A) (A) (A) (A) (A) (A)
                 (A) (A) (A) (A) (A) (A) (A) (A) (A) (A) (A) (A)
                 (A) (A) (A) (A) (A) (A) (A) (A) (A) (A) (A) (A)
                 (A) (A) (A) (A) (A) (A) (A) (A) (A) (A) (A) (A)
                 (A) (A) (A) (A) (A) (A) (A) (A) (A) (A) (A) (A)
                 (A) (A) (A) (A) (A) (A) (A) (A) (A) (A) (A) (A)
                 (A) (A) (A) (A) (A) (A) (A) (A) (A) (A) (A) (A)
                 (A) (A) (A) (A) (A) (A) (A) (A) (A) (A) (A) (A)
                 (A) (A) (A) (A) (A) (A) (A) (A) (A) (A) (A) (A)
                 (A) (A) (A) (A) (A) (A) (A) (A) (A) (A) (A) (A)
                 (A) (A) (A) (A) (A) (A) (A) (A) (A) (A) (A) (A)
                 (A) (A) (A) (A) (A) (A) (A) (A) (A) (A) (A) (A)
                 (A) (A) (A) (A) (A) (A) (A) (A) (A) (A) (A) (A)
                 (A) (A) (A) (A) (A) (A) (A) (A) (A) (A) (A) (A)
                 (A) (A) (A) (A) (A) (A) (A) (A) (A) (A) (A) (A)
                 (A) (A) (A) (A) (A) (A) (A) (A) (A) (A) (A) (A)
                 (A) (A) (A) (A) (A) (A) (A) (A) (A) (A) (A) (A)
                 (A) (A) (A) (A) (A) (A) (A) (A) (A) (A) (A) (A)
                 (A) (A) (A) (A) (A) (A) (A) (A) (A) (A) (A) (A)
                 (A) (A) (A) (A) (A) (A) (A) (A) (A) (A) (A) (A)
                 (A) (A) (A) (A) (A) (A) (A) (A) (A) (A) (A) (A)
                 (A) (A) (A) (A) (A) (A) (A) (A) (A) (A) (A) (A)
                 (A) (A) (A) (A) (A) (A) (A) (A) (A) (A) (A) (A)
                 (A) (A) (A) (A) (A) (A) (A) (A) (A) (A) (A) (A)
                 (A) (A) (A) (A) (A) (A) (A) (A) (A) (A) (A) (A)
                 (A) (A) (A) (A) (A) (A) (A) (A) (A) (A) (A) (A)
                 (A) (A) (A) (A) (A) (A) (A) (A) (A) (A) (A) (A)
                 (A) (A) (A) (A) (A) (A) (A) (A) (A) (A) (A) (A)
                 (A) (A) (A) (A) (A) (A) (A) (A) (A) (A) (A) (A)
                 (A) (A) (A) (A) (A) (A) (A) (A) (A) (A) (A) (A)
                 (A) (A) (A) (A) (A) (A) (A) (A) (A) (A) (A) (A)
                 (A) (A) (A) (A) (A) (A) (A) (A) (A) (A) (A) (A)
                 (A) (A) (A) (A) (A) (A) (A) (A) (A) (A) (A) (A)
                 (A) (A) (A) (A) (A) (A) (A) (A) (A) (A) (A) (A)
                 (A) (A) (A) (A) (A) (A) (A) (A) (A) (A) (A) (A)
                 (A) (A) (A) (A) (A) (A) (A) (A) (A) (A) (A) (A)
                 (A) (A) (A) (A) (A) (A) (A) (A) (A) (A) (A) (A)
                 (A) (A) (A) (A) (A) (A) (A) (A) (A) (A) (A) (A)
                 (A) (A) (A) (A) (A) (A) (A) (A) (A) (A) (A) (A)
                 (A) (A) (A) (A) (A) (A) (A) (A) (A) (A) (A) (A)
                 (A) (A) (A) (A) (A) (A) (A) (A) (A) (A) (A) (A)
                 (A) (A) (A) (A) (A) (A) (A) (A) (A)
 The electronic state is 1-A.
 Alpha  occ. eigenvalues --  -10.19378 -10.19376 -10.19349 -10.19343 -10.19281
 Alpha  occ. eigenvalues --  -10.19278 -10.19252 -10.19228 -10.19218 -10.19212
 Alpha  occ. eigenvalues --  -10.19210 -10.19204 -10.19180 -10.19178 -10.19172
 Alpha  occ. eigenvalues --  -10.19170 -10.19161 -10.19140 -10.19136 -10.19134
 Alpha  occ. eigenvalues --  -10.19117 -10.19115 -10.19112 -10.19096 -10.19071
 Alpha  occ. eigenvalues --  -10.19070 -10.19041 -10.19017 -10.18980 -10.18939
 Alpha  occ. eigenvalues --  -10.17949 -10.17916  -0.82881  -0.82747  -0.82346
 Alpha  occ. eigenvalues --   -0.81908  -0.81320  -0.80630  -0.79792  -0.78853
 Alpha  occ. eigenvalues --   -0.77800  -0.76643  -0.75402  -0.74057  -0.72661
 Alpha  occ. eigenvalues --   -0.71253  -0.70089  -0.68415  -0.65025  -0.62794
 Alpha  occ. eigenvalues --   -0.61691  -0.60535  -0.58918  -0.57718  -0.56877
 Alpha  occ. eigenvalues --   -0.56731  -0.56213  -0.55947  -0.55471  -0.55002
 Alpha  occ. eigenvalues --   -0.54898  -0.54455  -0.52644  -0.50121  -0.50079
 Alpha  occ. eigenvalues --   -0.48457  -0.47961  -0.47509  -0.47319  -0.46325
 Alpha  occ. eigenvalues --   -0.46035  -0.45236  -0.44663  -0.44207  -0.43237
 Alpha  occ. eigenvalues --   -0.42759  -0.41485  -0.41131  -0.40511  -0.40267
 Alpha  occ. eigenvalues --   -0.39293  -0.38903  -0.38349  -0.38049  -0.37800
 Alpha  occ. eigenvalues --   -0.37554  -0.37201  -0.36967  -0.36428  -0.36086
 Alpha  occ. eigenvalues --   -0.35837  -0.35338  -0.35202  -0.35030  -0.34665
 Alpha  occ. eigenvalues --   -0.34544  -0.34478  -0.34129  -0.33980  -0.33418
 Alpha  occ. eigenvalues --   -0.33236  -0.33192  -0.32357  -0.31293  -0.30085
 Alpha  occ. eigenvalues --   -0.28747  -0.27247  -0.25633  -0.23893  -0.22071
 Alpha  occ. eigenvalues --   -0.20203  -0.18485  -0.16966
 Alpha virt. eigenvalues --   -0.08364  -0.06291  -0.04597  -0.02613  -0.00515
 Alpha virt. eigenvalues --    0.01506   0.03421   0.04945   0.06819   0.07834
 Alpha virt. eigenvalues --    0.07853   0.08369   0.08846   0.08859   0.09502
 Alpha virt. eigenvalues --    0.09507   0.09780   0.09900   0.10326   0.11305
 Alpha virt. eigenvalues --    0.11747   0.12066   0.12377   0.12471   0.12598
 Alpha virt. eigenvalues --    0.12656   0.13173   0.13505   0.14099   0.14284
 Alpha virt. eigenvalues --    0.14322   0.14383   0.14723   0.14931   0.15083
 Alpha virt. eigenvalues --    0.15468   0.15636   0.16154   0.16452   0.17063
 Alpha virt. eigenvalues --    0.18226   0.19024   0.19789   0.19801   0.20018
 Alpha virt. eigenvalues --    0.20636   0.21323   0.22456   0.22883   0.25883
 Alpha virt. eigenvalues --    0.26712   0.27147   0.27363   0.28613   0.28834
 Alpha virt. eigenvalues --    0.29796   0.30957   0.31432   0.31923   0.32644
 Alpha virt. eigenvalues --    0.32783   0.33235   0.34307   0.34829   0.35855
 Alpha virt. eigenvalues --    0.36188   0.36512   0.37238   0.37845   0.38339
 Alpha virt. eigenvalues --    0.38759   0.39964   0.41139   0.41660   0.41826
 Alpha virt. eigenvalues --    0.42041   0.42784   0.44497   0.45074   0.45138
 Alpha virt. eigenvalues --    0.47652   0.48041   0.49404   0.51331   0.51374
 Alpha virt. eigenvalues --    0.51665   0.51944   0.52314   0.52860   0.53449
 Alpha virt. eigenvalues --    0.53552   0.54110   0.54382   0.54495   0.55313
 Alpha virt. eigenvalues --    0.55505   0.56197   0.56478   0.57079   0.57356
 Alpha virt. eigenvalues --    0.57771   0.58033   0.58060   0.58331   0.58781
 Alpha virt. eigenvalues --    0.58872   0.58977   0.59057   0.59223   0.59350
 Alpha virt. eigenvalues --    0.60304   0.60382   0.60417   0.60981   0.61185
 Alpha virt. eigenvalues --    0.61686   0.62189   0.62344   0.62809   0.62985
 Alpha virt. eigenvalues --    0.63153   0.63355   0.64246   0.64404   0.64516
 Alpha virt. eigenvalues --    0.65058   0.65159   0.65401   0.65790   0.66227
 Alpha virt. eigenvalues --    0.66268   0.66474   0.67046   0.67140   0.67913
 Alpha virt. eigenvalues --    0.67961   0.69159   0.69688   0.69776   0.69917
 Alpha virt. eigenvalues --    0.71099   0.71843   0.73089   0.74027   0.75250
 Alpha virt. eigenvalues --    0.75362   0.76039   0.78759   0.79025   0.79555
 Alpha virt. eigenvalues --    0.80301   0.80768   0.81455   0.81772   0.82929
 Alpha virt. eigenvalues --    0.83076   0.83795   0.83881   0.84534   0.84660
 Alpha virt. eigenvalues --    0.84943   0.84970   0.85360   0.85722   0.86203
 Alpha virt. eigenvalues --    0.86421   0.86733   0.86993   0.87195   0.87460
 Alpha virt. eigenvalues --    0.87537   0.87694   0.88264   0.88427   0.89106
 Alpha virt. eigenvalues --    0.89732   0.90729   0.91034   0.91525   0.91927
 Alpha virt. eigenvalues --    0.91985   0.92276   0.92936   0.93051   0.93691
 Alpha virt. eigenvalues --    0.94142   0.94506   0.94994   0.95995   0.96992
 Alpha virt. eigenvalues --    0.97583   0.98594   1.01593   1.02850   1.03261
 Alpha virt. eigenvalues --    1.03386   1.03996   1.04474   1.04939   1.05585
 Alpha virt. eigenvalues --    1.05676   1.05915   1.06479   1.07541   1.07990
 Alpha virt. eigenvalues --    1.08764   1.09380   1.09812   1.10232   1.10421
 Alpha virt. eigenvalues --    1.11139   1.11883   1.13172   1.17066   1.17571
 Alpha virt. eigenvalues --    1.18774   1.19731   1.20403   1.21233   1.21468
 Alpha virt. eigenvalues --    1.22203   1.23784   1.24460   1.27762   1.28204
 Alpha virt. eigenvalues --    1.28377   1.29099   1.29513   1.29693   1.29911
 Alpha virt. eigenvalues --    1.30134   1.30722   1.30836   1.31173   1.31393
 Alpha virt. eigenvalues --    1.31522   1.31892   1.32182   1.32360   1.32541
 Alpha virt. eigenvalues --    1.32792   1.32997   1.33101   1.33679   1.34197
 Alpha virt. eigenvalues --    1.34568   1.34843   1.36554   1.36988   1.37752
 Alpha virt. eigenvalues --    1.38487   1.39597   1.40740   1.42501   1.42995
 Alpha virt. eigenvalues --    1.43827   1.43999   1.45743   1.45831   1.46551
 Alpha virt. eigenvalues --    1.46766   1.47130   1.47193   1.48260   1.48648
 Alpha virt. eigenvalues --    1.49585   1.49650   1.50643   1.50723   1.51624
 Alpha virt. eigenvalues --    1.51836   1.51915   1.52625   1.53579   1.57545
 Alpha virt. eigenvalues --    1.68123   1.73971   1.75382   1.76275   1.76434
 Alpha virt. eigenvalues --    1.76505   1.76586   1.76680   1.76930   1.77033
 Alpha virt. eigenvalues --    1.77473   1.77557   1.78062   1.78267   1.78615
 Alpha virt. eigenvalues --    1.78843   1.83014   1.83838   1.85814   1.85914
 Alpha virt. eigenvalues --    1.86254   1.86287   1.87371   1.89007   1.89744
 Alpha virt. eigenvalues --    1.90782   1.91920   1.92429   1.92681   1.92761
 Alpha virt. eigenvalues --    1.92799   1.93167   1.93601   1.93898   1.94348
 Alpha virt. eigenvalues --    1.94764   1.95417   1.95623   1.96405   1.96566
 Alpha virt. eigenvalues --    1.97647   1.97984   1.98170   1.98780   1.99737
 Alpha virt. eigenvalues --    2.02352   2.02380   2.03310   2.03614   2.04222
 Alpha virt. eigenvalues --    2.04628   2.06158   2.06863   2.07942   2.08613
 Alpha virt. eigenvalues --    2.08793   2.09933   2.10698   2.11131   2.11615
 Alpha virt. eigenvalues --    2.12282   2.13124   2.14320   2.14649   2.15373
 Alpha virt. eigenvalues --    2.16273   2.17238   2.17903   2.18182   2.18310
 Alpha virt. eigenvalues --    2.19577   2.20038   2.20462   2.21645   2.21796
 Alpha virt. eigenvalues --    2.22720   2.23405   2.23442   2.24190   2.24889
 Alpha virt. eigenvalues --    2.26432   2.26809   2.28400   2.28560   2.29918
 Alpha virt. eigenvalues --    2.30928   2.31792   2.33284   2.33841   2.34786
 Alpha virt. eigenvalues --    2.36148   2.37230   2.37246   2.38266   2.40414
 Alpha virt. eigenvalues --    2.41574   2.41601   2.43409   2.44123   2.44820
 Alpha virt. eigenvalues --    2.45224   2.46039   2.46403   2.46745   2.47094
 Alpha virt. eigenvalues --    2.48090   2.48246   2.48344   2.48743   2.49076
 Alpha virt. eigenvalues --    2.49655   2.50298   2.50342   2.51116   2.51394
 Alpha virt. eigenvalues --    2.51511   2.52224   2.52334   2.52748   2.53205
 Alpha virt. eigenvalues --    2.53427   2.53486   2.54216   2.55323   2.55533
 Alpha virt. eigenvalues --    2.56433   2.56898   2.57670   2.57991   2.58280
 Alpha virt. eigenvalues --    2.58610   2.59812   2.59860   2.60187   2.60639
 Alpha virt. eigenvalues --    2.62243   2.62363   2.62409   2.62771   2.62957
 Alpha virt. eigenvalues --    2.64561   2.64747   2.65521   2.66243   2.66507
 Alpha virt. eigenvalues --    2.66776   2.67002   2.67610   2.68154   2.68922
 Alpha virt. eigenvalues --    2.69168   2.69412   2.69468   2.70027   2.70420
 Alpha virt. eigenvalues --    2.70642   2.71237   2.71492   2.71847   2.71961
 Alpha virt. eigenvalues --    2.73381   2.74174   2.76987   2.78860   2.79842
 Alpha virt. eigenvalues --    2.80756   2.83808   2.84788   2.86275   2.86571
 Alpha virt. eigenvalues --    2.86744   2.88176   2.88900   2.91287   2.91428
 Alpha virt. eigenvalues --    2.91870   2.92228   2.92503   2.93033   2.93769
 Alpha virt. eigenvalues --    2.94835   2.95388   2.95975   2.96545   2.97399
 Alpha virt. eigenvalues --    2.97947   2.99121   2.99311   2.99732   2.99872
 Alpha virt. eigenvalues --    3.00081   3.01599   3.03158   3.10578   3.16062
 Alpha virt. eigenvalues --    3.20292   3.28001   3.28032   3.32995   3.33216
 Alpha virt. eigenvalues --    3.34068   3.35034   3.35326   3.35446   3.35859
 Alpha virt. eigenvalues --    3.36556   3.38289   3.38591   3.41271   3.41891
 Alpha virt. eigenvalues --    3.44658   3.47029   3.49113   3.52648   3.53214
 Alpha virt. eigenvalues --    3.53938   3.54610   3.56026   3.57337   3.59808
 Alpha virt. eigenvalues --    3.61187   3.62637   3.63640   3.65396   3.65959
 Alpha virt. eigenvalues --    3.66876   3.70921   3.71038   3.72891   3.79256
 Alpha virt. eigenvalues --    4.10826   4.12260   4.13566   4.13736   4.13772
 Alpha virt. eigenvalues --    4.13948   4.14226   4.14400   4.15035   4.15565
 Alpha virt. eigenvalues --    4.16329   4.17376   4.18606   4.20036   4.21073
 Alpha virt. eigenvalues --    4.25707   4.26005   4.30637   4.32730   4.35993
 Alpha virt. eigenvalues --    4.39381   4.43299   4.47215   4.51166   4.55725
 Alpha virt. eigenvalues --    4.59624   4.63573   4.67283   4.70442   4.73062
 Alpha virt. eigenvalues --    4.74803   4.76583
          Condensed to atoms (all electrons):
 Mulliken charges:
               1
     1  C   -0.251808
     2  C   -0.033697
     3  C   -0.077632
     4  C   -0.077091
     5  C   -0.079905
     6  C   -0.079431
     7  C   -0.082286
     8  C   -0.076590
     9  C   -0.055923
    10  C   -0.106703
    11  C   -0.076480
    12  C   -0.084744
    13  C   -0.081740
    14  C   -0.079724
    15  C   -0.079713
    16  C   -0.081842
    17  C   -0.084927
    18  C   -0.076223
    19  C   -0.106533
    20  C   -0.055850
    21  C   -0.076993
    22  C   -0.081915
    23  C   -0.080446
    24  C   -0.078733
    25  C   -0.080228
    26  C   -0.079530
    27  C   -0.079329
    28  C   -0.080592
    29  C   -0.076953
    30  C   -0.077784
    31  C   -0.033657
    32  C   -0.251951
    33  H    0.095656
    34  H    0.083866
    35  H    0.081816
    36  H    0.081148
    37  H    0.080905
    38  H    0.080630
    39  H    0.080607
    40  H    0.080886
    41  H    0.081778
    42  H    0.080289
    43  H    0.080268
    44  H    0.079431
    45  H    0.080603
    46  H    0.080222
    47  H    0.080235
    48  H    0.080646
    49  H    0.079442
    50  H    0.080189
    51  H    0.080225
    52  H    0.081848
    53  H    0.080754
    54  H    0.080565
    55  H    0.080293
    56  H    0.080496
    57  H    0.080094
    58  H    0.080449
    59  H    0.080187
    60  H    0.080693
    61  H    0.080928
    62  H    0.081642
    63  H    0.083705
    64  H    0.095521
    65  H    0.095374
    66  H    0.095563
 Sum of Mulliken charges =  -0.00000
 Mulliken charges with hydrogens summed into heavy atoms:
               1
     1  C   -0.060589
     2  C    0.050168
     3  C    0.004184
     4  C    0.004058
     5  C    0.001000
     6  C    0.001199
     7  C   -0.001679
     8  C    0.004297
     9  C    0.025855
    10  C   -0.026414
    11  C    0.003788
    12  C   -0.005314
    13  C   -0.001137
    14  C    0.000498
    15  C    0.000522
    16  C   -0.001196
    17  C   -0.005484
    18  C    0.003966
    19  C   -0.026308
    20  C    0.025998
    21  C    0.003761
    22  C   -0.001350
    23  C   -0.000153
    24  C    0.001763
    25  C   -0.000134
    26  C    0.000919
    27  C    0.000858
    28  C    0.000101
    29  C    0.003975
    30  C    0.003858
    31  C    0.050048
    32  C   -0.061056
 Electronic spatial extent (au):  <R**2>=          94447.1689
 Charge=              0.0000 electrons
 Dipole moment (field-independent basis, Debye):
    X=             -0.0528    Y=             -0.2010    Z=              0.0135  Tot=              0.2083
 Quadrupole moment (field-independent basis, Debye-Ang):
   XX=           -180.7119   YY=           -169.0883   ZZ=           -207.9867
   XY=              0.0129   XZ=              0.3029   YZ=             -0.7555
 Traceless Quadrupole moment (field-independent basis, Debye-Ang):
   XX=              5.2171   YY=             16.8407   ZZ=            -22.0578
   XY=              0.0129   XZ=              0.3029   YZ=             -0.7555
 Octapole moment (field-independent basis, Debye-Ang**2):
  XXX=            -61.7601  YYY=             -7.5752  ZZZ=              0.0132  XYY=              4.6187
  XXY=           -117.4373  XXZ=              3.5244  XZZ=              0.4367  YZZ=             -0.9826
  YYZ=              0.3574  XYZ=            -21.9666
 Hexadecapole moment (field-independent basis, Debye-Ang**3):
 XXXX=        -122749.3622 YYYY=          -2963.4906 ZZZZ=           -224.7279 XXXY=             46.3764
 XXXZ=             84.9088 YYYX=             37.8828 YYYZ=             -4.3903 ZZZX=              2.4401
 ZZZY=             -0.7540 XXYY=         -20178.3293 XXZZ=         -23782.5759 YYZZ=           -634.8417
 XXYZ=            -72.1001 YYXZ=            -46.6242 ZZXY=              2.4665
 N-N= 2.072668668997D+03 E-N=-7.012766631081D+03  KE= 1.227257841036D+03
 Calling FoFJK, ICntrl=      2127 FMM=T ISym2X=0 I1Cent= 0 IOpClX= 0 NMat=1 NMatS=1 NMatT=0.
 ***** Axes restored to original set *****
 -------------------------------------------------------------------
 Center     Atomic                   Forces (Hartrees/Bohr)
 Number     Number              X              Y              Z
 -------------------------------------------------------------------
      1        6          -0.008756963    0.003323795    0.000196454
      2        6           0.015219123   -0.015595990    0.012202510
      3        6          -0.025301456    0.017258895   -0.009186706
      4        6           0.029143753   -0.018888283    0.009299920
      5        6          -0.030965937    0.018461884   -0.007719775
      6        6           0.032289730   -0.018986049    0.007636244
      7        6          -0.032585061    0.018507431   -0.006690590
      8        6           0.034750880   -0.018419815    0.005400577
      9        6          -0.030286953    0.020654343   -0.010666988
     10        6           0.033679980   -0.012113359   -0.003233555
     11        6          -0.030076686    0.012059091    0.001334307
     12        6           0.031087862   -0.011260292   -0.002871549
     13        6          -0.030603330    0.014161616   -0.001492084
     14        6           0.030182162   -0.014512254    0.001301624
     15        6          -0.031134060    0.011597278    0.003544380
     16        6           0.031498485   -0.011561574   -0.003344856
     17        6          -0.030318977    0.013929038   -0.001028866
     18        6           0.029961141   -0.012980263   -0.000765529
     19        6          -0.032591896    0.015460750   -0.001367855
     20        6           0.035392884   -0.007373416   -0.013095301
     21        6          -0.037623918    0.011686912    0.007613745
     22        6           0.036199009   -0.010246862   -0.009128509
     23        6          -0.036694056    0.009990683    0.009680843
     24        6           0.036105995   -0.009547833   -0.010044793
     25        6          -0.036088101    0.009186535    0.010433920
     26        6           0.035511768   -0.008871862   -0.010594029
     27        6          -0.035209547    0.008315428    0.011181196
     28        6           0.034109545   -0.007930972   -0.011077997
     29        6          -0.032948103    0.006580372    0.012506770
     30        6           0.029106333   -0.005233186   -0.012093359
     31        6          -0.020239282    0.000071783    0.014658481
     32        6           0.008709456   -0.003377290   -0.000430320
     33        1          -0.002335223    0.000484312    0.000590710
     34        1           0.004970423   -0.000318938   -0.002095173
     35        1          -0.003318229    0.000643663    0.000915829
     36        1           0.003122429   -0.000553856   -0.000858488
     37        1          -0.003109328    0.000587113    0.000934244
     38        1           0.003144695   -0.000564526   -0.000863777
     39        1          -0.003121358    0.000566948    0.001037086
     40        1           0.003227877   -0.000585279   -0.000909624
     41        1          -0.001849155   -0.000910540    0.002211657
     42        1           0.000131808    0.000358283   -0.000393929
     43        1           0.003702879    0.000167266   -0.002261128
     44        1          -0.002098881   -0.000583054    0.002175456
     45        1           0.001265691   -0.002014943    0.002067325
     46        1          -0.002238082    0.002527087   -0.002248036
     47        1           0.003354412    0.000245858   -0.002417426
     48        1          -0.002201857   -0.000475161    0.002245306
     49        1           0.001060480   -0.001842108    0.002060150
     50        1          -0.002728816    0.002591731   -0.002224753
     51        1           0.000152749    0.000175516   -0.000487358
     52        1           0.000903792   -0.001770042    0.002272756
     53        1          -0.002795349    0.001722235   -0.000843587
     54        1           0.002650975   -0.001778809    0.000938709
     55        1          -0.002756252    0.001642659   -0.000799432
     56        1           0.002691253   -0.001720489    0.000860053
     57        1          -0.002777090    0.001619760   -0.000786746
     58        1           0.002724231   -0.001681844    0.000822785
     59        1          -0.002779581    0.001602406   -0.000779752
     60        1           0.002743976   -0.001636689    0.000780616
     61        1          -0.002761687    0.001584194   -0.000771124
     62        1           0.002958274   -0.001694660    0.000765534
     63        1          -0.004120846    0.002853952   -0.002010994
     64        1           0.002106181   -0.001163311    0.000478358
     65        1           0.000257410   -0.002298269    0.003856616
     66        1          -0.001701579   -0.002127000    0.003579825
 -------------------------------------------------------------------
 Cartesian Forces:  Max     0.037623918 RMS     0.013956109

 GradGradGradGradGradGradGradGradGradGradGradGradGradGradGradGradGradGrad
 Berny optimization.
 FormGI is forming the generalized inverse of G from B-inverse, IUseBI=4.
 Internal  Forces:  Max     0.022489004 RMS     0.007479167
 Search for a local minimum.
 Step number   1 out of a maximum of  295
 All quantities printed in internal units (Hartrees-Bohrs-Radians)
 Mixed Optimization -- RFO/linear search
 Second derivative matrix not updated -- first step.
 ITU=  0
     Eigenvalues ---    0.00883   0.00885   0.00930   0.00942   0.00947
     Eigenvalues ---    0.01042   0.01043   0.01054   0.01054   0.01054
     Eigenvalues ---    0.01055   0.01055   0.01056   0.01063   0.01064
     Eigenvalues ---    0.01857   0.01857   0.01857   0.01860   0.01887
     Eigenvalues ---    0.01889   0.01894   0.01898   0.01905   0.01906
     Eigenvalues ---    0.01957   0.01959   0.01968   0.01969   0.01973
     Eigenvalues ---    0.01975   0.01975   0.01976   0.01976   0.01976
     Eigenvalues ---    0.01976   0.01977   0.01977   0.01977   0.01977
     Eigenvalues ---    0.01977   0.01981   0.01982   0.01997   0.01998
     Eigenvalues ---    0.02746   0.02747   0.02750   0.02751   0.02820
     Eigenvalues ---    0.02823   0.02885   0.02888   0.02888   0.02889
     Eigenvalues ---    0.02889   0.02890   0.02891   0.02891   0.02949
     Eigenvalues ---    0.02949   0.02950   0.02950   0.16000   0.16000
     Eigenvalues ---    0.16000   0.16000   0.16000   0.16000   0.16000
     Eigenvalues ---    0.16000   0.16000   0.16000   0.16000   0.16000
     Eigenvalues ---    0.16000   0.16000   0.16000   0.16000   0.16000
     Eigenvalues ---    0.16000   0.16000   0.16000   0.16000   0.16000
     Eigenvalues ---    0.16000   0.16000   0.16000   0.16000   0.16000
     Eigenvalues ---    0.16000   0.16000   0.16000   0.16000   0.16000
     Eigenvalues ---    0.16000   0.16000   0.22000   0.22000   0.22000
     Eigenvalues ---    0.22000   0.22000   0.22000   0.22000   0.22000
     Eigenvalues ---    0.22000   0.22000   0.22000   0.22000   0.22000
     Eigenvalues ---    0.22000   0.22000   0.22000   0.22000   0.22000
     Eigenvalues ---    0.22000   0.22000   0.22000   0.22000   0.22000
     Eigenvalues ---    0.22000   0.22000   0.22000   0.22000   0.22000
     Eigenvalues ---    0.22000   0.22000   0.33320   0.33341   0.33717
     Eigenvalues ---    0.33812   0.33853   0.34673   0.34676   0.34772
     Eigenvalues ---    0.34776   0.34777   0.34782   0.34785   0.34789
     Eigenvalues ---    0.34856   0.34859   0.35060   0.35061   0.35066
     Eigenvalues ---    0.35066   0.35068   0.35070   0.35073   0.35073
     Eigenvalues ---    0.35087   0.35090   0.35092   0.35096   0.35097
     Eigenvalues ---    0.35101   0.35106   0.35112   0.35158   0.35161
     Eigenvalues ---    0.35182   0.35185   0.35280   0.35281   0.35366
     Eigenvalues ---    0.35366   0.35583   0.35588   0.35704   0.35724
     Eigenvalues ---    0.35748   0.35754   0.35871   0.35885   0.35888
     Eigenvalues ---    0.35889   0.54953   0.54969   0.55019   0.55031
     Eigenvalues ---    0.56163   0.56210   0.57245   0.57298   0.57303
     Eigenvalues ---    0.57313   0.57316   0.57325   0.57344   0.57346
     Eigenvalues ---    0.58352   0.58362
 RFO step:  Lambda=-4.46476763D-02 EMin= 8.82573804D-03
 Linear search not attempted -- first point.
 Maximum step size (   0.300) exceeded in Quadratic search.
    -- Step size scaled by   0.804
 Iteration  1 RMS(Cart)=  0.15570251 RMS(Int)=  0.00062571
 Iteration  2 RMS(Cart)=  0.00446512 RMS(Int)=  0.00000291
 Iteration  3 RMS(Cart)=  0.00000189 RMS(Int)=  0.00000289
 Iteration  4 RMS(Cart)=  0.00000000 RMS(Int)=  0.00000289
 Variable       Old X    -DE/DX   Delta X   Delta X   Delta X     New X
                                 (Linear)    (Quad)   (Total)
    R1        2.52260   0.01200   0.00000   0.01535   0.01535   2.53795
    R2        2.05222  -0.00014   0.00000  -0.00029  -0.00029   2.05193
    R3        2.05085   0.00013   0.00000   0.00027   0.00027   2.05113
    R4        2.79210  -0.01430   0.00000  -0.02922  -0.02922   2.76288
    R5        2.05380   0.00058   0.00000   0.00117   0.00117   2.05497
    R6        2.53104   0.01901   0.00000   0.02471   0.02471   2.55575
    R7        2.05533  -0.00022   0.00000  -0.00044  -0.00044   2.05489
    R8        2.79325  -0.01818   0.00000  -0.03722  -0.03722   2.75604
    R9        2.05565  -0.00018   0.00000  -0.00037  -0.00037   2.05528
   R10        2.53106   0.02142   0.00000   0.02785   0.02785   2.55891
   R11        2.05526  -0.00016   0.00000  -0.00032  -0.00032   2.05494
   R12        2.79340  -0.01949   0.00000  -0.03990  -0.03990   2.75350
   R13        2.05568  -0.00021   0.00000  -0.00043  -0.00043   2.05525
   R14        2.53145   0.02232   0.00000   0.02904   0.02904   2.56049
   R15        2.05517  -0.00010   0.00000  -0.00020  -0.00020   2.05497
   R16        2.79510  -0.02119   0.00000  -0.04351  -0.04351   2.75159
   R17        2.05578  -0.00025   0.00000  -0.00050  -0.00050   2.05528
   R18        2.54072   0.01508   0.00000   0.01997   0.01997   2.56070
   R19        2.04731   0.00195   0.00000   0.00391   0.00391   2.05122
   R20        2.80949  -0.01825   0.00000  -0.03831  -0.03831   2.77118
   R21        2.05420   0.00049   0.00000   0.00100   0.00100   2.05520
   R22        2.55160   0.00586   0.00000   0.00792   0.00792   2.55952
   R23        2.04257   0.00389   0.00000   0.00775   0.00775   2.05032
   R24        2.81757  -0.02052   0.00000  -0.04362  -0.04362   2.77396
   R25        2.04515   0.00304   0.00000   0.00608   0.00608   2.05123
   R26        2.55115   0.00655   0.00000   0.00885   0.00885   2.56000
   R27        2.04478   0.00308   0.00000   0.00615   0.00615   2.05093
   R28        2.81111  -0.01918   0.00000  -0.04037  -0.04037   2.77074
   R29        2.04283   0.00373   0.00000   0.00744   0.00744   2.05027
   R30        2.55174   0.00619   0.00000   0.00838   0.00838   2.56011
   R31        2.04262   0.00380   0.00000   0.00757   0.00757   2.05019
   R32        2.81793  -0.02065   0.00000  -0.04392  -0.04392   2.77401
   R33        2.04469   0.00311   0.00000   0.00621   0.00621   2.05089
   R34        2.55105   0.00629   0.00000   0.00850   0.00850   2.55954
   R35        2.04547   0.00293   0.00000   0.00587   0.00587   2.05134
   R36        2.80878  -0.01822   0.00000  -0.03822  -0.03822   2.77057
   R37        2.04256   0.00390   0.00000   0.00777   0.00777   2.05033
   R38        2.54113   0.01510   0.00000   0.02002   0.02002   2.56115
   R39        2.05414   0.00052   0.00000   0.00105   0.00105   2.05519
   R40        2.79504  -0.02144   0.00000  -0.04402  -0.04402   2.75103
   R41        2.04738   0.00192   0.00000   0.00385   0.00385   2.05123
   R42        2.53190   0.02249   0.00000   0.02929   0.02929   2.56118
   R43        2.05577  -0.00023   0.00000  -0.00047  -0.00047   2.05529
   R44        2.79346  -0.02003   0.00000  -0.04103  -0.04103   2.75244
   R45        2.05494  -0.00003   0.00000  -0.00007  -0.00007   2.05487
   R46        2.53141   0.02228   0.00000   0.02898   0.02898   2.56039
   R47        2.05567  -0.00021   0.00000  -0.00042  -0.00042   2.05525
   R48        2.79339  -0.01960   0.00000  -0.04014  -0.04014   2.75325
   R49        2.05503  -0.00008   0.00000  -0.00016  -0.00016   2.05487
   R50        2.53133   0.02189   0.00000   0.02848   0.02848   2.55980
   R51        2.05561  -0.00019   0.00000  -0.00038  -0.00038   2.05524
   R52        2.79331  -0.01914   0.00000  -0.03918  -0.03918   2.75413
   R53        2.05511  -0.00010   0.00000  -0.00020  -0.00020   2.05491
   R54        2.53130   0.02110   0.00000   0.02744   0.02744   2.55874
   R55        2.05556  -0.00016   0.00000  -0.00033  -0.00033   2.05523
   R56        2.79319  -0.01806   0.00000  -0.03696  -0.03696   2.75622
   R57        2.05519  -0.00013   0.00000  -0.00026  -0.00026   2.05493
   R58        2.53122   0.01885   0.00000   0.02451   0.02451   2.55573
   R59        2.05556  -0.00015   0.00000  -0.00031  -0.00031   2.05525
   R60        2.79204  -0.01425   0.00000  -0.02912  -0.02912   2.76292
   R61        2.05529  -0.00021   0.00000  -0.00042  -0.00042   2.05488
   R62        2.52269   0.01194   0.00000   0.01528   0.01528   2.53796
   R63        2.05375   0.00060   0.00000   0.00121   0.00121   2.05496
   R64        2.05222  -0.00015   0.00000  -0.00029  -0.00029   2.05193
   R65        2.05084   0.00014   0.00000   0.00029   0.00029   2.05113
    A1        2.11477   0.00028   0.00000   0.00111   0.00111   2.11588
    A2        2.09360   0.00447   0.00000   0.01755   0.01755   2.11115
    A3        2.07481  -0.00475   0.00000  -0.01866  -0.01866   2.05616
    A4        2.11463   0.01173   0.00000   0.03562   0.03562   2.15025
    A5        2.07578  -0.00035   0.00000   0.00385   0.00385   2.07964
    A6        2.09277  -0.01138   0.00000  -0.03947  -0.03947   2.05330
    A7        2.10912   0.01235   0.00000   0.03751   0.03751   2.14662
    A8        2.08240  -0.00977   0.00000  -0.03286  -0.03286   2.04955
    A9        2.09167  -0.00258   0.00000  -0.00465  -0.00465   2.08702
   A10        2.11322   0.01234   0.00000   0.03746   0.03746   2.15067
   A11        2.08916  -0.00280   0.00000  -0.00549  -0.00549   2.08367
   A12        2.08081  -0.00954   0.00000  -0.03197  -0.03197   2.04884
   A13        2.10749   0.01288   0.00000   0.03911   0.03911   2.14660
   A14        2.08392  -0.00983   0.00000  -0.03285  -0.03285   2.05106
   A15        2.09178  -0.00305   0.00000  -0.00626  -0.00626   2.08552
   A16        2.11549   0.01190   0.00000   0.03615   0.03615   2.15164
   A17        2.08825  -0.00256   0.00000  -0.00474  -0.00474   2.08350
   A18        2.07945  -0.00935   0.00000  -0.03140  -0.03140   2.04804
   A19        2.10513   0.01317   0.00000   0.04000   0.04000   2.14513
   A20        2.08502  -0.01001   0.00000  -0.03346  -0.03346   2.05156
   A21        2.09303  -0.00316   0.00000  -0.00654  -0.00654   2.08649
   A22        2.11885   0.01093   0.00000   0.03320   0.03320   2.15205
   A23        2.08580  -0.00198   0.00000  -0.00289  -0.00289   2.08291
   A24        2.07852  -0.00896   0.00000  -0.03030  -0.03030   2.04822
   A25        2.09651   0.01219   0.00000   0.03701   0.03700   2.13351
   A26        2.06752  -0.00846   0.00000  -0.02779  -0.02779   2.03973
   A27        2.11915  -0.00373   0.00000  -0.00920  -0.00921   2.10994
   A28        2.19138   0.00772   0.00000   0.02346   0.02346   2.21483
   A29        2.06927  -0.00363   0.00000  -0.01083  -0.01083   2.05844
   A30        2.02253  -0.00409   0.00000  -0.01262  -0.01262   2.00991
   A31        2.18349   0.00556   0.00000   0.01687   0.01687   2.20036
   A32        1.99722  -0.00081   0.00000  -0.00071  -0.00071   1.99651
   A33        2.10247  -0.00474   0.00000  -0.01616  -0.01616   2.08631
   A34        2.17782   0.00825   0.00000   0.02504   0.02504   2.20286
   A35        2.09490  -0.00463   0.00000  -0.01449  -0.01449   2.08041
   A36        2.01047  -0.00362   0.00000  -0.01055  -0.01055   1.99992
   A37        2.17641   0.00830   0.00000   0.02520   0.02520   2.20161
   A38        2.00981  -0.00346   0.00000  -0.00988  -0.00988   1.99993
   A39        2.09694  -0.00484   0.00000  -0.01531  -0.01531   2.08163
   A40        2.18828   0.00570   0.00000   0.01731   0.01731   2.20558
   A41        2.09948  -0.00447   0.00000  -0.01500  -0.01500   2.08448
   A42        1.99542  -0.00123   0.00000  -0.00230  -0.00230   1.99311
   A43        2.18861   0.00561   0.00000   0.01703   0.01703   2.20564
   A44        1.99484  -0.00113   0.00000  -0.00192  -0.00192   1.99291
   A45        2.09974  -0.00448   0.00000  -0.01510  -0.01510   2.08464
   A46        2.17618   0.00835   0.00000   0.02537   0.02537   2.20154
   A47        2.09703  -0.00487   0.00000  -0.01542  -0.01542   2.08161
   A48        2.00998  -0.00348   0.00000  -0.00995  -0.00995   2.00003
   A49        2.17696   0.00847   0.00000   0.02572   0.02572   2.20268
   A50        2.01176  -0.00384   0.00000  -0.01130  -0.01130   2.00047
   A51        2.09445  -0.00463   0.00000  -0.01442  -0.01442   2.08003
   A52        2.18432   0.00531   0.00000   0.01613   0.01613   2.20046
   A53        2.10255  -0.00467   0.00000  -0.01596  -0.01596   2.08659
   A54        1.99631  -0.00065   0.00000  -0.00017  -0.00017   1.99614
   A55        2.19291   0.00738   0.00000   0.02240   0.02240   2.21531
   A56        2.02121  -0.00384   0.00000  -0.01178  -0.01178   2.00944
   A57        2.06906  -0.00354   0.00000  -0.01062  -0.01062   2.05844
   A58        2.09378   0.01266   0.00000   0.03844   0.03844   2.13222
   A59        2.11992  -0.00394   0.00000  -0.00984  -0.00984   2.11008
   A60        2.06948  -0.00872   0.00000  -0.02860  -0.02860   2.04088
   A61        2.12216   0.01041   0.00000   0.03162   0.03162   2.15378
   A62        2.07660  -0.00868   0.00000  -0.02946  -0.02946   2.04714
   A63        2.08442  -0.00173   0.00000  -0.00216  -0.00216   2.08226
   A64        2.10153   0.01376   0.00000   0.04177   0.04177   2.14331
   A65        2.09456  -0.00346   0.00000  -0.00746  -0.00746   2.08710
   A66        2.08708  -0.01030   0.00000  -0.03431  -0.03431   2.05277
   A67        2.11931   0.01132   0.00000   0.03436   0.03436   2.15367
   A68        2.07730  -0.00905   0.00000  -0.03050  -0.03050   2.04680
   A69        2.08657  -0.00227   0.00000  -0.00386  -0.00386   2.08271
   A70        2.10357   0.01360   0.00000   0.04129   0.04129   2.14487
   A71        2.09340  -0.00340   0.00000  -0.00730  -0.00730   2.08610
   A72        2.08621  -0.01020   0.00000  -0.03399  -0.03399   2.05222
   A73        2.11702   0.01170   0.00000   0.03553   0.03553   2.15254
   A74        2.07860  -0.00925   0.00000  -0.03110  -0.03110   2.04750
   A75        2.08757  -0.00245   0.00000  -0.00443  -0.00443   2.08314
   A76        2.10581   0.01326   0.00000   0.04025   0.04025   2.14607
   A77        2.09244  -0.00323   0.00000  -0.00679  -0.00679   2.08565
   A78        2.08493  -0.01002   0.00000  -0.03346  -0.03346   2.05147
   A79        2.11474   0.01207   0.00000   0.03664   0.03664   2.15138
   A80        2.07987  -0.00942   0.00000  -0.03163  -0.03163   2.04824
   A81        2.08857  -0.00264   0.00000  -0.00501  -0.00501   2.08356
   A82        2.10795   0.01284   0.00000   0.03899   0.03899   2.14694
   A83        2.09157  -0.00304   0.00000  -0.00623  -0.00623   2.08534
   A84        2.08366  -0.00980   0.00000  -0.03275  -0.03275   2.05090
   A85        2.11278   0.01243   0.00000   0.03774   0.03774   2.15053
   A86        2.08106  -0.00958   0.00000  -0.03208  -0.03208   2.04899
   A87        2.08934  -0.00285   0.00000  -0.00567  -0.00567   2.08367
   A88        2.10932   0.01233   0.00000   0.03744   0.03744   2.14675
   A89        2.09159  -0.00258   0.00000  -0.00464  -0.00464   2.08695
   A90        2.08228  -0.00975   0.00000  -0.03279  -0.03279   2.04949
   A91        2.11449   0.01178   0.00000   0.03576   0.03576   2.15025
   A92        2.09286  -0.01140   0.00000  -0.03952  -0.03952   2.05333
   A93        2.07584  -0.00038   0.00000   0.00376   0.00376   2.07961
   A94        2.11477   0.00028   0.00000   0.00109   0.00109   2.11586
   A95        2.09363   0.00447   0.00000   0.01755   0.01755   2.11119
   A96        2.07478  -0.00475   0.00000  -0.01864  -0.01864   2.05614
    D1        0.00016   0.00001   0.00000   0.00005   0.00005   0.00021
    D2        3.14102   0.00002   0.00000   0.00026   0.00026   3.14128
    D3       -3.14105  -0.00001   0.00000  -0.00013  -0.00013  -3.14118
    D4       -0.00018   0.00000   0.00000   0.00007   0.00008  -0.00011
    D5        3.13867   0.00004   0.00000   0.00055   0.00055   3.13922
    D6       -0.00138   0.00000   0.00000   0.00006   0.00006  -0.00132
    D7       -0.00218   0.00002   0.00000   0.00032   0.00032  -0.00186
    D8        3.14095  -0.00002   0.00000  -0.00016  -0.00016   3.14079
    D9       -3.13919  -0.00004   0.00000  -0.00052  -0.00052  -3.13971
   D10        0.00010   0.00001   0.00000   0.00014   0.00014   0.00024
   D11        0.00086  -0.00000   0.00000  -0.00005  -0.00005   0.00081
   D12        3.14015   0.00005   0.00000   0.00060   0.00061   3.14075
   D13        3.13424   0.00011   0.00000   0.00140   0.00140   3.13564
   D14       -0.00403   0.00002   0.00000   0.00035   0.00035  -0.00368
   D15       -0.00506   0.00005   0.00000   0.00072   0.00072  -0.00434
   D16        3.13985  -0.00004   0.00000  -0.00033  -0.00032   3.13953
   D17       -3.13677  -0.00008   0.00000  -0.00109  -0.00110  -3.13787
   D18        0.00071   0.00001   0.00000   0.00010   0.00010   0.00081
   D19        0.00149  -0.00001   0.00000  -0.00008  -0.00008   0.00141
   D20        3.13897   0.00009   0.00000   0.00111   0.00112   3.14009
   D21        3.12966   0.00018   0.00000   0.00230   0.00229   3.13194
   D22       -0.00693   0.00005   0.00000   0.00075   0.00075  -0.00618
   D23       -0.00784   0.00007   0.00000   0.00105   0.00105  -0.00679
   D24        3.13876  -0.00006   0.00000  -0.00050  -0.00049   3.13827
   D25       -3.13469  -0.00011   0.00000  -0.00148  -0.00149  -3.13618
   D26        0.00136   0.00001   0.00000   0.00008   0.00008   0.00143
   D27        0.00188   0.00000   0.00000  -0.00000  -0.00000   0.00187
   D28        3.13792   0.00012   0.00000   0.00156   0.00157   3.13949
   D29        3.12613   0.00023   0.00000   0.00290   0.00289   3.12902
   D30       -0.00922   0.00007   0.00000   0.00107   0.00107  -0.00815
[...]
 004180,-0.00005713,-0.00004529,0.00002356,0.00001266,0.00002262,0.0000
 6264,0.00023509,0.00009004,0.00023360,-0.00007963,-0.00013624,-0.00352
 575,-0.00392604,-0.00300649,-0.01029145,-0.00214519,0.01711577,-0.0362
 9323,-0.07372573,0.08555884,0.00000004,0.00000004,0.00000002,-0.000000
 01,0.00000013,-0.00000008,0.00000002,0.00000006,0.,-0.00000003,0.00000
 015,-0.00000009,0.00000002,0.00000008,0.,-0.00000004,0.00000017,-0.000
 00010,0.00000002,0.00000011,0.,-0.00000005,0.00000020,-0.00000011,0.00
 000004,0.00000013,-0.00000002,-0.00000013,0.00000025,-0.00000011,0.000
 00013,0.00000004,0.00000009,-0.00000014,0.00000008,0.00000019,0.000000
 13,0.00000016,0.00000001,-0.00000015,0.00000030,-0.00000009,0.00000016
 ,0.00000010,0.00000011,-0.00000010,0.00000016,0.00000024,0.00000018,0.
 00000033,0.00000002,-0.00000020,0.00000047,-0.00000011,0.00000028,0.00
 000031,0.00000020,0.00000006,0.00000035,0.00000037,0.00000012,0.000000
 38,0.00000016,0.00000030,0.00000066,0.00000060,0.00000063,0.00000178,0
 .00000081,0.00000088,0.00000112,0.00000073,-0.00000266,-0.00000476,-0.
 00000469,0.00000358,0.00000191,0.00000120,0.00000060,0.00001453,0.0000
 0167,0.00003654,-0.00001039,-0.00000211,0.00006913,0.00031514,-0.00000
 937,0.00074916,0.00014121,-0.00024683,0.00471709,0.00495935,0.00619146
 ,0.03965847,0.06907686,-0.00000014,0.00000001,-0.00000005,0.00000010,-
 0.00000008,0.00000003,-0.00000016,0.00000009,-0.00000008,0.00000016,-0
 .00000012,0.00000001,-0.00000026,0.00000010,-0.00000005,0.00000029,-0.
 00000015,-0.00000003,-0.00000041,0.00000011,0.,0.00000049,-0.00000018,
 -0.00000012,-0.00000061,0.00000008,0.00000015,0.00000081,-0.00000022,-
 0.00000028,-0.00000079,0.00000075,-0.00000067,0.00000123,-0.00000082,0
 .00000027,-0.00000179,0.00000005,0.00000082,0.00000215,-0.00000043,-0.
 00000082,-0.00000205,0.00000178,-0.00000157,0.00000301,-0.00000209,0.0
 0000092,-0.00000431,0.00000018,0.00000214,0.00000533,-0.00000107,-0.00
 000229,-0.00000524,0.00000432,-0.00000379,0.00000747,-0.00000457,0.000
 00273,-0.00000882,0.00000655,-0.00000539,0.00001190,-0.00001039,0.0000
 0219,-0.00001533,0.00001216,-0.00000917,0.00002799,-0.00000486,0.00001
 281,-0.00003221,0.00002098,-0.00002045,0.00003341,-0.00006992,-0.00001
 826,-0.00006042,0.00006716,-0.00002700,0.00014260,0.00007472,0.0001135
 4,-0.00048990,0.00004746,0.00017111,0.00046721,-0.00434715,-0.00098273
 ,0.01191509,0.00713333,-0.01390498,0.11090139,0.08670119,-0.23752298,0
 .00000002,0.,0.00000004,0.,0.,0.00000003,0.00000001,0.,0.00000005,0.00
 000002,0.,0.00000003,0.00000001,0.,0.00000006,0.00000002,0.,0.00000004
 ,0.00000002,0.,0.00000007,0.00000003,0.,0.00000005,0.00000002,0.000000
 01,0.00000007,0.00000005,0.,0.00000005,-0.00000003,0.00000003,0.000000
 10,-0.00000007,0.00000005,0.00000011,0.00000006,0.00000001,0.00000013,
 0.00000009,0.,0.00000009,-0.00000005,0.00000005,0.00000018,-0.00000010
 ,0.00000010,0.00000020,0.00000012,0.00000006,0.00000022,0.00000021,0.,
 0.00000016,-0.00000010,0.00000014,0.00000043,-0.00000015,0.00000018,0.
 00000043,-0.00000006,-0.00000003,0.00000062,-0.00000033,0.00000039,0.0
 0000079,0.00000022,0.00000055,0.00000159,-0.00000085,0.00000066,0.0000
 0149,-0.00000155,-0.00000510,-0.00000010,-0.00000303,0.00000182,0.0000
 0335,0.00000587,0.00000103,0.00001051,-0.00003319,0.00001382,0.0000036
 2,0.00017267,-0.00000474,0.00023436,-0.00102559,0.00038796,0.00035636,
 -0.00053962,0.00628984,0.00165241,-0.12113744,-0.09817043,0.25025028,-
 0.00000544,0.00000256,-0.00000034,0.00000399,-0.00000521,0.00000450,-0
 .00000321,0.00000453,-0.00000411,0.00000270,-0.00000539,0.00000545,-0.
 00000234,0.00000442,-0.00000446,0.00000237,-0.00000575,0.00000606,-0.0
 0000202,0.00000454,-0.00000481,0.00000229,-0.00000604,0.00000666,-0.00
 000180,0.00000428,-0.00000467,0.00000291,-0.00000827,0.00000883,-0.000
 00298,0.00000574,-0.00000578,0.00000793,0.00000397,-0.00000957,-0.0000
 0762,-0.00000266,0.00000762,0.00000570,-0.00000966,0.00000976,-0.00000
 617,0.00000905,-0.00000903,0.00001257,0.00000249,-0.00001149,-0.000013
 40,-0.00000322,0.00001282,0.00001175,-0.00001240,0.00001152,-0.0000129
 1,0.00001449,-0.00001419,0.00001825,-0.00000377,-0.00000814,-0.0000191
 6,0.00000612,0.00000314,0.00002545,-0.00000096,-0.00000668,-0.00002612
 ,0.00000839,0.00000105,0.00002613,-0.00002459,-0.00002197,-0.00004087,
 0.00002065,0.00000021,0.00008486,0.00007136,0.00003292,-0.00012437,0.0
 0002632,-0.00000744,-0.00005811,-0.00032031,-0.00039960,-0.00053925,0.
 00013554,0.00028372,0.00228194,0.00404670,-0.00022679,-0.00927922,0.00
 245756,0.00486953,-0.31112237,0.08703868,0.04611411,0.00000022,-0.0000
 0005,-0.00000002,-0.00000024,0.00000081,-0.00000090,-0.00000002,0.0000
 0014,-0.00000013,-0.00000042,0.00000097,-0.00000100,-0.00000002,0.0000
 0022,-0.00000024,-0.00000050,0.00000111,-0.00000113,-0.00000003,0.0000
 0032,-0.00000033,-0.00000058,0.00000128,-0.00000130,0.00000003,0.00000
 039,-0.00000052,-0.00000132,0.00000166,-0.00000138,0.00000079,-0.00000
 045,0.00000033,-0.00000190,-0.00000007,0.00000128,0.00000080,0.,-0.000
 00049,-0.00000162,0.00000165,-0.00000129,0.00000079,-0.00000048,0.0000
 0043,-0.00000220,-0.00000002,0.00000153,0.00000096,0.00000023,-0.00000
 074,-0.00000208,0.00000213,-0.00000172,0.00000075,-0.00000068,0.000000
 67,-0.00000213,-0.00000037,0.00000218,-0.00000043,-0.00000020,0.000001
 43,-0.00000265,-0.00000076,0.00000328,-0.00000119,-0.00000120,0.000001
 21,-0.00000287,-0.00000087,0.00000434,0.00000146,0.00000527,0.00000551
 ,-0.00000260,-0.00000226,0.00000557,-0.00000752,-0.00001990,-0.0000121
 2,0.00001041,-0.00000383,0.00001515,0.00001024,0.00007601,-0.00003032,
 0.00028919,-0.00021661,-0.00003571,0.00017479,-0.00195063,-0.00156464,
 -0.00815553,0.00459407,-0.00033547,0.32647485,0.00000400,-0.00000202,0
 .00000021,-0.00000292,0.00000386,-0.00000340,0.00000233,-0.00000346,0.
 00000311,-0.00000192,0.00000400,-0.00000418,0.00000163,-0.00000342,0.0
 0000344,-0.00000160,0.00000429,-0.00000473,0.00000128,-0.00000357,0.00
 000380,-0.00000142,0.00000452,-0.00000528,0.00000096,-0.00000341,0.000
 00384,-0.00000168,0.00000614,-0.00000700,0.00000181,-0.00000393,0.0000
 0386,-0.00000538,-0.00000371,0.00000759,0.00000475,0.00000174,-0.00000
 506,-0.00000297,0.00000717,-0.00000829,0.00000347,-0.00000582,0.000005
 70,-0.00000792,-0.00000367,0.00000973,0.00000755,0.00000200,-0.0000079
 6,-0.00000517,0.00000953,-0.00001062,0.00000641,-0.00000848,0.00000797
 ,-0.00001054,-0.00000407,0.00000780,0.00000965,0.00000090,-0.00000722,
 -0.00000719,0.00000422,0.00001763,0.00001006,-0.00000063,-0.00001216,-
 0.00002912,-0.00004929,-0.00000831,0.00002080,0.00000934,-0.00001407,0
 .00006934,0.00016795,0.00016863,0.00006348,-0.00004344,-0.00008629,-0.
 00036038,-0.00108127,-0.00032930,0.00091132,0.00015664,-0.00047791,0.0
 0295801,0.00548982,0.00749318,0.01943954,-0.00148051,-0.00378789,0.084
 71158,-0.06546592,-0.00170054,-0.00000014,0.00000009,0.00000004,0.0000
 0019,-0.00000057,0.00000069,0.00000004,-0.00000005,0.00000012,0.000000
 33,-0.00000068,0.00000077,0.00000004,-0.00000010,0.00000020,0.00000039
 ,-0.00000078,0.00000087,0.00000005,-0.00000016,0.00000027,0.00000047,-
 0.00000090,0.00000102,0.,-0.00000019,0.00000042,0.00000106,-0.00000120
 ,0.00000108,-0.00000059,0.00000044,-0.00000017,0.00000157,0.00000012,-
 0.00000091,-0.00000061,0.00000019,0.00000041,0.00000135,-0.00000117,0.
 00000103,-0.00000060,0.00000057,-0.00000020,0.00000196,0.00000014,-0.0
 0000110,-0.00000076,0.00000025,0.00000066,0.00000184,-0.00000149,0.000
 00140,-0.00000066,0.00000071,-0.00000039,0.00000206,0.00000062,-0.0000
 0156,0.00000074,0.00000132,-0.00000036,0.00000273,0.00000107,-0.000002
 46,0.00000004,-0.00000081,-0.00000219,0.00000391,0.00000206,-0.0000029
 0,0.00000644,0.00001494,0.00000764,0.00000449,0.00000221,-0.00000525,-
 0.00002048,-0.00004601,-0.00002982,0.00000843,0.00002266,-0.00000202,-
 0.00000549,0.00009331,0.00008250,0.00004224,-0.00014738,-0.00023705,-0
 .00211996,-0.00391148,-0.00326796,-0.00977436,0.00518781,0.00185459,-0
 .09594713,0.06107900,-0.00000273,0.00000130,-0.00000025,0.00000192,-0.
 00000263,0.00000230,-0.00000156,0.00000234,-0.00000221,0.00000119,-0.0
 0000276,0.00000287,-0.00000104,0.00000234,-0.00000251,0.00000090,-0.00
 000298,0.00000330,-0.00000072,0.00000245,-0.00000285,0.00000066,-0.000
 00316,0.00000375,-0.00000036,0.00000237,-0.00000299,0.00000064,-0.0000
 0427,0.00000496,-0.00000091,0.00000219,-0.00000236,0.00000310,0.000002
 98,-0.00000564,-0.00000250,-0.00000118,0.00000269,0.00000079,-0.000005
 06,0.00000628,-0.00000146,0.00000287,-0.00000317,0.00000392,0.00000362
 ,-0.00000784,-0.00000320,-0.00000146,0.00000367,0.00000061,-0.00000616
 ,0.00000924,-0.00000191,0.00000287,-0.00000368,0.00000226,0.00000347,-
 0.00001013,-0.00000235,-0.00000493,0.00000932,0.00000289,0.00001366,-0
 .00001008,-0.00000148,-0.00001114,0.00001363,-0.00001513,-0.00001119,-
 0.00003995,0.,-0.00001400,0.00003031,0.00003629,0.00016731,0.00002659,
 -0.00006452,-0.00006245,0.00006424,-0.00033863,-0.00035499,-0.00068392
 ,-0.00090763,0.00002052,0.00077798,0.00144607,0.00679357,0.00024637,-0
 .02120650,0.00711533,0.00687181,0.04968635,-0.00319368,-0.05814963,0.0
 0000011,-0.00000002,0.00000002,-0.00000012,0.00000041,-0.00000043,0.,0
 .00000006,-0.00000003,-0.00000020,0.00000049,-0.00000048,0.,0.00000010
 ,-0.00000007,-0.00000025,0.00000057,-0.00000054,0.,0.00000015,-0.00000
 011,-0.00000030,0.00000066,-0.00000063,0.00000004,0.00000018,-0.000000
 20,-0.00000071,0.00000088,-0.00000068,0.00000046,-0.00000022,0.0000001
 9,-0.00000113,0.00000003,0.00000072,0.00000053,-0.00000006,-0.00000014
 ,-0.00000094,0.00000093,-0.00000061,0.00000054,-0.00000025,0.00000026,
 -0.00000147,0.00000012,0.00000093,0.00000078,0.00000002,-0.00000016,-0
 .00000135,0.00000127,-0.00000081,0.00000064,-0.00000040,0.00000034,-0.
 00000149,-0.00000002,0.00000143,0.00000003,0.00000021,0.00000101,-0.00
 000209,-0.00000020,0.00000229,-0.00000073,-0.00000137,0.00000038,-0.00
 000299,0.00000018,0.00000347,0.00000373,0.00000841,0.00000733,-0.00000
 480,-0.00000090,0.00000515,-0.00001128,-0.00003016,-0.00002042,-0.0000
 0363,0.00000584,0.00001821,0.00009489,0.00003017,0.00003753,-0.0004329
 2,-0.00007105,0.00010296,-0.00130397,-0.00337672,-0.00090414,0.0217268
 3,-0.00737110,-0.00032384,-0.04869272,0.00034461,0.05191875,-0.2827741
 5,0.12025995,-0.01437226,-0.01592587,0.01190304,-0.00412662,0.00065581
 ,0.00059339,0.00538932,-0.00072578,0.00072696,-0.00040651,-0.00019939,
 -0.00053282,-0.00000857,-0.00013515,0.00005698,-0.00003904,0.00006360,
 0.00003427,0.00009173,-0.00004172,0.00002425,-0.00000261,0.00002045,-0
 .00003863,0.00000140,-0.00003481,-0.00000580,0.00002603,0.00002977,0.0
 0000760,-0.00002110,-0.00001373,0.00002060,-0.00002082,0.00001218,-0.0
 0001982,0.00001937,-0.00001601,-0.00000443,0.00001643,0.00001557,0.000
 00591,-0.00001906,-0.00000642,0.00001081,-0.00001253,0.00000516,-0.000
 01306,0.00001676,-0.00000795,-0.00000340,0.00001050,0.00000986,0.00000
 631,-0.00001665,-0.00000508,-0.00000303,0.00000785,0.00000706,0.000004
 40,-0.00001123,-0.00000538,-0.00000291,0.00000792,0.00000666,0.0000037
 6,-0.00001021,-0.00000533,-0.00000247,0.00000720,0.00000645,0.00000320
 ,-0.00000913,-0.00000533,-0.00000209,0.00000660,0.00000632,0.00000269,
 -0.00000824,-0.00000545,-0.00000171,0.00000610,0.00000633,0.00000216,-
 0.00000742,-0.00000626,-0.00000111,0.00000570,0.00000738,0.00000099,-0
 .00000628,-0.00000699,0.00000226,0.00000094,0.00001182,-0.00015912,0.0
 0150013,0.00016903,-0.00202889,-0.00135971,0.00017370,-0.00008418,-0.0
 0014904,0.00001565,-0.00000543,0.00007932,0.00001367,0.00001324,-0.000
 01082,-0.00000645,-0.00001832,-0.00001409,-0.00000173,0.00000607,-0.00
 000650,0.00000249,0.00000677,0.00000218,-0.00000234,0.00000429,-0.0000
 0344,0.00000154,-0.00000044,-0.00000191,-0.00000551,-0.00000015,0.0000
 0353,0.00000125,-0.00000111,0.00000176,-0.00000291,0.00000305,-0.00000
 221,0.00000159,0.00000023,-0.00000063,-0.00000367,-0.00000006,0.000002
 45,0.00000093,-0.00000094,0.00000074,-0.00000231,0.00000232,-0.0000018
 3,0.00000140,-0.00000002,-0.00000054,-0.00000306,-0.00000031,0.0000025
 4,-0.00000039,-0.00000044,0.00000093,-0.00000185,-0.00000068,0.0000023
 0,-0.00000037,-0.00000025,0.00000073,-0.00000159,-0.00000058,0.0000019
 8,-0.00000029,-0.00000020,0.00000056,-0.00000137,-0.00000052,0.0000017
 3,-0.00000022,-0.00000015,0.00000042,-0.00000120,-0.00000047,0.0000015
 3,-0.00000015,-0.00000011,0.00000030,-0.00000104,-0.00000042,0.0000013
 4,-0.00000010,-0.00000005,0.00000017,-0.00000076,-0.00000044,0.0000011
 9,0.00000026,-0.00000009,0.00000001,-0.00000090,0.00000068,-0.00000043
 ,0.29871307,0.12286633,-0.10100518,0.02150284,-0.00712810,0.00662400,0
 .00084242,0.00181175,0.00633186,0.00580896,-0.00014065,0.00042819,-0.0
 0018089,-0.00048975,-0.00083860,-0.00050803,0.00001704,-0.00002095,-0.
 00007723,0.00003428,0.00016907,0.00015764,0.00002531,0.00000850,-0.000
 01341,-0.00003533,-0.00003627,-0.00001858,0.00001317,-0.00000013,-0.00
 001037,-0.00000688,0.00001211,0.00000155,0.00000489,-0.00000738,0.0000
 0517,-0.00000662,0.00000059,0.00000132,0.00000490,0.00000046,-0.000003
 71,-0.00000384,0.00000150,-0.00000080,0.00000189,-0.00000280,0.0000024
 1,-0.00000241,0.00000089,0.00000007,0.00000195,0.00000020,-0.00000184,
 -0.00000178,0.00000031,0.00000040,0.00000090,-0.00000067,0.00000025,-0
 .00000113,0.00000022,0.00000021,0.00000068,-0.00000039,-0.00000004,-0.
 00000088,0.00000006,0.00000033,0.00000054,-0.00000021,-0.00000018,-0.0
 0000073,-0.00000004,0.00000041,0.00000047,-0.00000009,-0.00000028,-0.0
 0000063,-0.00000010,0.00000046,0.00000044,-0.00000002,-0.00000035,-0.0
 0000058,-0.00000012,0.00000049,0.00000049,0.,-0.00000039,-0.00000065,-
 0.00000006,0.00000047,0.00000053,-0.00000027,-0.00000009,0.01594430,-0
 .00466673,0.00007636,-0.00183886,-0.00333955,-0.00361424,-0.00037368,0
 .00002384,-0.00019010,0.00008588,0.00007649,0.00003934,-0.00000040,0.0
 0001820,0.00000901,-0.00001763,-0.00004190,-0.00003130,-0.00000134,0.0
 0000145,-0.00000031,0.00000574,0.00001238,0.00000945,-0.00000031,0.000
 00125,0.00000061,-0.00000042,-0.00000175,-0.00000119,-0.00000005,0.000
 00042,-0.00000016,0.00000085,0.00000119,0.00000038,-0.00000021,0.00000
 034,0.00000021,0.00000026,0.00000042,0.00000034,0.00000017,0.00000025,
 -0.00000008,0.00000020,0.00000025,-0.00000007,0.,0.00000008,0.00000016
 ,0.00000002,0.00000012,0.00000012,0.00000020,0.00000014,-0.00000013,0.
 00000011,0.00000016,-0.00000006,0.00000016,0.00000013,-0.00000013,0.00
 000009,0.00000013,-0.00000006,0.00000015,0.00000011,-0.00000012,0.0000
 0007,0.00000010,-0.00000004,0.00000013,0.00000009,-0.00000011,0.000000
 05,0.00000008,-0.00000003,0.00000011,0.00000008,-0.00000010,0.00000004
 ,0.00000006,-0.00000002,0.00000010,0.00000007,-0.00000010,0.00000003,0
 .00000005,0.,0.00000008,0.00000007,-0.00000009,0.,0.00000005,0.0000000
 1,0.00000010,-0.00000003,0.00000005,-0.13077153,0.09624732,-0.01775327
 ,0.02297096,-0.05094298,0.02057133,-0.00987469,0.00541217,0.00380700,0
 .00649544,0.00101998,0.00071990,-0.00066952,0.00069137,-0.00006402,-0.
 00048386,-0.00077832,0.00001280,-0.00009973,0.00004909,0.00009132,0.00
 015773,0.00004935,-0.00000401,-0.00001283,0.00002788,-0.00000275,-0.00
 001669,-0.00004270,0.00000106,0.00000027,-0.00000363,-0.00000191,-0.00
 000649,0.00002040,0.00000056,-0.00000373,0.00000365,0.00000104,0.00000
 853,-0.00001403,0.00000258,0.00000161,-0.00000448,-0.00000418,-0.00000
 619,0.00001111,0.00000094,-0.00000293,0.00000364,0.00000015,0.00000605
 ,-0.00000962,0.00000185,0.00000134,-0.00000368,-0.00000339,-0.00000422
 ,0.00000867,0.00000162,0.00000238,-0.00000485,-0.00000259,-0.00000293,
 0.00000594,0.00000205,0.00000194,-0.00000450,-0.00000266,-0.00000233,0
 .00000522,0.00000222,0.00000151,-0.00000389,-0.00000273,-0.00000186,0.
 00000453,0.00000233,0.00000117,-0.00000341,-0.00000277,-0.00000147,0.0
 0000397,0.00000245,0.00000089,-0.00000302,-0.00000283,-0.00000113,0.00
 000349,0.00000284,0.00000054,-0.00000273,-0.00000333,-0.00000052,0.000
 00290,0.00000317,-0.00000107,-0.00000052,-0.01939951,0.00914425,0.0013
 6586,-0.00160658,-0.00350717,-0.00146605,0.00022708,-0.00035339,0.0000
 4593,-0.00003921,0.00009077,0.00004832,0.00000687,0.00000133,0.0000193
 6,-0.00001492,-0.00003090,-0.00002514,0.00000307,-0.00000447,0.0000046
 9,0.00000358,0.00000888,0.00000870,0.00000262,-0.00000200,0.00000274,-
 0.00000190,-0.00000116,-0.00000020,0.00000323,-0.00000011,-0.00000150,
 -0.00000075,0.00000149,0.00000031,0.00000214,-0.00000155,0.00000138,-0
 .00000077,0.00000043,0.00000066,0.00000202,0.00000006,-0.00000105,-0.0
 0000059,0.00000061,-0.00000007,0.00000140,-0.00000110,0.00000101,-0.00
 000070,0.00000019,0.00000034,0.00000157,0.00000020,-0.00000115,0.00000
 018,0.00000029,-0.00000030,0.00000092,0.00000038,-0.00000103,0.0000001
 8,0.00000017,-0.00000023,0.00000077,0.00000032,-0.00000088,0.00000014,
 0.00000013,-0.00000017,0.00000066,0.00000028,-0.00000077,0.00000011,0.
 00000010,-0.00000013,0.00000057,0.00000025,-0.00000067,0.00000008,0.00
 000008,-0.00000009,0.00000049,0.00000022,-0.00000059,0.00000005,0.0000
 0005,-0.00000004,0.00000036,0.00000022,-0.00000052,-0.00000010,0.00000
 007,0.00000002,0.00000041,-0.00000029,0.00000022,0.01342976,-0.0238068
 3,0.04450003\\-0.00000332,0.00000010,0.00000221,-0.00000312,0.00000021
 ,0.00000178,0.00000572,0.00000106,-0.00000428,-0.00000672,-0.00000053,
 0.00000452,0.00000787,0.00000055,-0.00000503,-0.00000756,-0.00000098,0
 .00000537,0.00000694,0.00000033,-0.00000451,-0.00000539,-0.00000073,0.
 00000392,0.00000517,0.,-0.00000350,0.00000140,-0.00000342,0.00000351,0
 .00000002,0.00000081,-0.00000165,0.00000523,-0.00000046,-0.00000199,-0
 .00000660,0.00000146,0.00000120,0.00000382,-0.00000237,0.00000002,-0.0
 0000417,0.00000235,-0.00000042,0.00000838,-0.00000397,0.00000105,-0.00
 000817,0.00000265,0.00000052,0.00000492,0.00000006,-0.00000336,-0.0000
 0712,0.00000197,0.00000127,0.00000045,0.00000038,-0.00000012,-0.000000
 27,-0.00000119,0.00000136,-0.00000188,0.00000231,-0.00000192,0.0000035
 5,-0.00000439,0.00000466,-0.00000542,0.00000547,-0.00000461,0.00000685
 ,-0.00000682,0.00000636,-0.00000793,0.00000753,-0.00000612,0.00000812,
 -0.00000746,0.00000654,-0.00000803,0.00000740,-0.00000584,0.00000670,-
 0.00000588,0.00000507,-0.00000502,0.00000541,-0.00000469,0.00000335,-0
 .00000243,0.00000193,0.00000235,-0.00000189,0.00000189,0.00000171,0.00
 000024,-0.00000060,0.00000129,0.00000005,-0.00000052,-0.00000133,0.000
 00041,0.00000080,0.00000154,-0.00000013,-0.00000054,-0.00000147,0.0000
 0055,0.00000061,0.00000160,0.,-0.00000080,-0.00000134,0.00000048,0.000
 00055,0.00000091,0.00000010,-0.00000060,-0.00000191,0.00000007,0.00000
 086,-0.00000080,0.00000040,-0.00000022,-0.00000023,0.00000034,-0.00000
 084,-0.00000101,0.00000028,0.00000053,-0.00000002,-0.00000039,0.000000
 45,-0.00000116,0.00000082,-0.00000079,0.00000133,0.00000010,-0.0000006
 9,-0.00000065,-0.00000009,0.00000037,0.00000081,-0.00000113,-0.0000002
 2,-0.00000057,-0.00000016,-0.00000081,0.00000125,-0.00000105,-0.000000
 18,0.00000125,-0.00000039,0.00000076,-0.00000030,-0.00000015,-0.000000
 50,0.00000077,-0.00000062,-0.00000003,-0.00000102,0.00000045,-0.000000
 78,0.00000119,-0.00000087,0.00000031,-0.00000146,0.00000085,-0.0000008
 9,0.00000152,-0.00000104,0.00000058,-0.00000167,0.00000107,-0.00000087
 ,0.00000161,-0.00000098,0.00000064,-0.00000149,0.00000091,-0.00000053,
 0.00000132,-0.00000084,0.00000080,-0.00000107,0.00000082,-0.00000049,-
 0.00000119,0.00000119,-0.00000049,-0.00000018,0.00000066,-0.00000047,0
 .00000064,0.00000052,-0.00000055\\\@


 MARY HAD A LITTLE LAMB
      HIS FEET WERE BLACK AS SOOT,
           AND EVERYWHERE THAT MARY WENT
                HIS SOOTY FOOT HE PUT.

                    -- NONAME
 Job cpu time:       0 days  2 hours 15 minutes  7.0 seconds.
 Elapsed time:       0 days  2 hours 15 minutes  7.3 seconds.
 File lengths (MBytes):  RWF=   2614 Int=      0 D2E=      0 Chk=     36 Scr=      1
 Normal termination of Gaussian 16 at Sun Oct 29 08:08:26 2023.
