 Entering Gaussian System, Link 0=g16
 Input=./com/17.com
 Output=./log/17.log
 Initial command:
 /home/shohei/gaussian/g16/l1.exe "/home/shohei/gaussian/scratch/Gau-16049.inp" -scrdir="/home/shohei/gaussian/scratch/"
 Entering Link 1 = /home/shohei/gaussian/g16/l1.exe PID=     16051.
  
 Copyright (c) 1988-2017, Gaussian, Inc.  All Rights Reserved.
  
 This is part of the Gaussian(R) 16 program.  It is based on
 the Gaussian(R) 09 system (copyright 2009, Gaussian, Inc.),
 the Gaussian(R) 03 system (copyright 2003, Gaussian, Inc.),
 the Gaussian(R) 98 system (copyright 1998, Gaussian, Inc.),
 the Gaussian(R) 94 system (copyright 1995, Gaussian, Inc.),
 the Gaussian 92(TM) system (copyright 1992, Gaussian, Inc.),
 the Gaussian 90(TM) system (copyright 1990, Gaussian, Inc.),
 the Gaussian 88(TM) system (copyright 1988, Gaussian, Inc.),
 the Gaussian 86(TM) system (copyright 1986, Carnegie Mellon
 University), and the Gaussian 82(TM) system (copyright 1983,
 Carnegie Mellon University). Gaussian is a federally registered
 trademark of Gaussian, Inc.
  
 This software contains proprietary and confidential information,
 including trade secrets, belonging to Gaussian, Inc.
  
 This software is provided under written license and may be
 used, copied, transmitted, or stored only in accord with that
 written license.
  
 The following legend is applicable only to US Government
 contracts under FAR:
  
                    RESTRICTED RIGHTS LEGEND
  
 Use, reproduction and disclosure by the US Government is
 subject to restrictions as set forth in subparagraphs (a)
 and (c) of the Commercial Computer Software - Restricted
 Rights clause in FAR 52.227-19.
  
 Gaussian, Inc.
 340 Quinnipiac St., Bldg. 40, Wallingford CT 06492
  
  
 ---------------------------------------------------------------
 Warning -- This program may not be used in any manner that
 competes with the business of Gaussian, Inc. or will provide
 assistance to any competitor of Gaussian, Inc.  The licensee
 of this program is prohibited from giving any competitor of
 Gaussian, Inc. access to this program.  By using this program,
 the user acknowledges that Gaussian, Inc. is engaged in the
 business of creating and licensing software in the field of
 computational chemistry and represents and warrants to the
 licensee that it is not a competitor of Gaussian, Inc. and that
 it will not use this program in any manner prohibited above.
 ---------------------------------------------------------------
  

 Cite this work as:
 Gaussian 16, Revision B.01,
 M. J. Frisch, G. W. Trucks, H. B. Schlegel, G. E. Scuseria, 
 M. A. Robb, J. R. Cheeseman, G. Scalmani, V. Barone, 
 G. A. Petersson, H. Nakatsuji, X. Li, M. Caricato, A. V. Marenich, 
 J. Bloino, B. G. Janesko, R. Gomperts, B. Mennucci, H. P. Hratchian, 
 J. V. Ortiz, A. F. Izmaylov, J. L. Sonnenberg, D. Williams-Young, 
 F. Ding, F. Lipparini, F. Egidi, J. Goings, B. Peng, A. Petrone, 
 T. Henderson, D. Ranasinghe, V. G. Zakrzewski, J. Gao, N. Rega, 
 G. Zheng, W. Liang, M. Hada, M. Ehara, K. Toyota, R. Fukuda, 
 J. Hasegawa, M. Ishida, T. Nakajima, Y. Honda, O. Kitao, H. Nakai, 
 T. Vreven, K. Throssell, J. A. Montgomery, Jr., J. E. Peralta, 
 F. Ogliaro, M. J. Bearpark, J. J. Heyd, E. N. Brothers, K. N. Kudin, 
 V. N. Staroverov, T. A. Keith, R. Kobayashi, J. Normand, 
 K. Raghavachari, A. P. Rendell, J. C. Burant, S. S. Iyengar, 
 J. Tomasi, M. Cossi, J. M. Millam, M. Klene, C. Adamo, R. Cammi, 
 J. W. Ochterski, R. L. Martin, K. Morokuma, O. Farkas, 
 J. B. Foresman, and D. J. Fox, Gaussian, Inc., Wallingford CT, 2016.
 
 ******************************************
 Gaussian 16:  EM64L-G16RevB.01 20-Dec-2017
                 9-Nov-2023 
 ******************************************
 %chk=checkpoint.chk
 %nprocshared=4
 Will use up to    4 processors via shared memory.
 ---------------------------
 # B3LYP/6-31G(d,p) OPT FREQ
 ---------------------------
 1/18=20,19=15,26=3,38=1/1,3;
 2/9=110,12=2,17=6,18=5,40=1/2;
 3/5=1,6=6,7=101,11=2,25=1,30=1,71=1,74=-5/1,2,3;
 4//1;
 5/5=2,38=5/2;
 6/7=2,8=2,9=2,10=2,28=1/1;
 7//1,2,3,16;
 1/18=20,19=15,26=3/3(2);
 2/9=110/2;
 99//99;
 2/9=110/2;
 3/5=1,6=6,7=101,11=2,25=1,30=1,71=1,74=-5/1,2,3;
 4/5=5,16=3,69=1/1;
 5/5=2,38=5/2;
 7//1,2,3,16;
 1/18=20,19=15,26=3/3(-5);
 2/9=110/2;
 6/7=2,8=2,9=2,10=2,19=2,28=1/1;
 99/9=1/99;
 ------
 17poly
 ------
 Symbolic Z-matrix:
 Charge =  0 Multiplicity = 1
 C                    -2.37713   1.12643   0.01699 
 C                    -1.16205   1.67792  -0.02341 
 C                     0.05671   0.84409   0.01858 
 C                     1.27396   1.40174  -0.02226 
 C                     2.49351   0.56818   0.0197 
 C                     3.71072   1.12601  -0.02128 
 C                     4.93043   0.29269   0.02066 
 C                     6.14744   0.8509   -0.0205 
 C                     7.36756   0.01818   0.02139 
 C                     8.58416   0.57722  -0.01998 
 C                     9.80507  -0.25437   0.02185 
 C                     11.02097   0.30614  -0.01978 
 C                     12.24319  -0.52356   0.02197 
 C                     13.45799   0.03929  -0.01996 
 C                     14.68214  -0.78756   0.02169 
 C                     15.89539  -0.22138  -0.02057 
 C                     17.12218  -1.04431   0.02094 
 C                     18.33335  -0.47374  -0.02166 
 C                     19.56345  -1.2917    0.01971 
 C                     20.77212  -0.71581  -0.02315 
 C                     22.00605  -1.52795   0.01817 
 C                     23.21187  -0.94609  -0.02472 
 C                     24.44988  -1.75194   0.0167 
 C                     25.65275  -1.16392  -0.02588 
 C                     26.89475  -1.96353   0.01587 
 C                     28.09482  -1.36972  -0.02599 
 C                     29.34035  -2.16375   0.0163 
 C                     30.53805  -1.56505  -0.02453 
 C                     31.78635  -2.35467   0.01839 
 C                     32.98232  -1.75241  -0.0214 
 C                     34.23245  -2.53911   0.02207 
 C                     35.42736  -1.93482  -0.01692 
 C                     36.67767  -2.72035   0.02689 
 C                     37.87023  -2.12151  -0.01139 
 H                    -3.2599    1.75682  -0.015 
 H                    -2.5038    0.04973   0.08184 
 H                    -1.07693   2.75939  -0.08829 
 H                    -0.04096  -0.23727   0.08357 
 H                     1.3707    2.48319  -0.08727 
 H                     2.39671  -0.51324   0.08476 
 H                     3.80743   2.20744  -0.08637 
 H                     4.83395  -0.78874   0.08584 
 H                     6.2437    1.93238  -0.08571 
 H                     7.27174  -1.0633    0.08672 
 H                     8.67956   1.65877  -0.08535 
 H                     9.71046  -1.33594   0.08734 
 H                     11.11487   1.38782  -0.08531 
 H                     12.1505  -1.60528   0.08764 
 H                     13.54961   1.12116  -0.08565 
 H                     14.59225  -1.8695    0.08754 
 H                     15.98381   0.86075  -0.08645 
 H                     17.03601  -2.12653   0.08698 
 H                     18.41766   0.60871  -0.0877 
 H                     19.48188  -2.37427   0.08591 
 H                     20.85152   0.36701  -0.0893 
 H                     21.92969  -2.61089   0.08445 
 H                     23.28589   0.13711  -0.09088 
 H                     24.379   -2.83525   0.08291 
 H                     25.72133  -0.08035  -0.0919 
 H                     26.82911  -3.0472    0.08185 
 H                     28.15841  -0.28584  -0.0917 
 H                     29.27925  -3.24771   0.0819 
 H                     30.59754  -0.48092  -0.08985 
 H                     31.72868  -3.43885   0.08355 
 H                     33.03893  -0.6681   -0.08633 
 H                     34.17706  -3.62344   0.08689 
 H                     35.48314  -0.85044  -0.08159 
 H                     36.63486  -3.80431   0.09146 
 H                     37.9546  -1.04063  -0.0758 
 H                     38.77708  -2.71665   0.02197 
 

 GradGradGradGradGradGradGradGradGradGradGradGradGradGradGradGradGradGrad
 Berny optimization.
 Initialization pass.
                           ----------------------------
                           !    Initial Parameters    !
                           ! (Angstroms and Degrees)  !
 --------------------------                            --------------------------
 ! Name  Definition              Value          Derivative Info.                !
 --------------------------------------------------------------------------------
 ! R1    R(1,2)                  1.335          estimate D2E/DX2                !
 ! R2    R(1,35)                 1.0852         estimate D2E/DX2                !
 ! R3    R(1,36)                 1.0861         estimate D2E/DX2                !
 ! R4    R(2,3)                  1.4773         estimate D2E/DX2                !
 ! R5    R(2,37)                 1.0867         estimate D2E/DX2                !
 ! R6    R(3,4)                  1.3395         estimate D2E/DX2                !
 ! R7    R(3,38)                 1.0877         estimate D2E/DX2                !
 ! R8    R(4,5)                  1.4778         estimate D2E/DX2                !
 ! R9    R(4,39)                 1.0877         estimate D2E/DX2                !
 ! R10   R(5,6)                  1.3396         estimate D2E/DX2                !
 ! R11   R(5,40)                 1.0877         estimate D2E/DX2                !
 ! R12   R(6,7)                  1.4778         estimate D2E/DX2                !
 ! R13   R(6,41)                 1.0877         estimate D2E/DX2                !
 ! R14   R(7,8)                  1.3396         estimate D2E/DX2                !
 ! R15   R(7,42)                 1.0877         estimate D2E/DX2                !
 ! R16   R(8,9)                  1.4778         estimate D2E/DX2                !
 ! R17   R(8,43)                 1.0877         estimate D2E/DX2                !
 ! R18   R(9,10)                 1.3395         estimate D2E/DX2                !
 ! R19   R(9,44)                 1.0877         estimate D2E/DX2                !
 ! R20   R(10,11)                1.4778         estimate D2E/DX2                !
 ! R21   R(10,45)                1.0877         estimate D2E/DX2                !
 ! R22   R(11,12)                1.3395         estimate D2E/DX2                !
 ! R23   R(11,46)                1.0877         estimate D2E/DX2                !
 ! R24   R(12,13)                1.4778         estimate D2E/DX2                !
 ! R25   R(12,47)                1.0877         estimate D2E/DX2                !
 ! R26   R(13,14)                1.3395         estimate D2E/DX2                !
 ! R27   R(13,48)                1.0877         estimate D2E/DX2                !
 ! R28   R(14,15)                1.4778         estimate D2E/DX2                !
 ! R29   R(14,49)                1.0877         estimate D2E/DX2                !
 ! R30   R(15,16)                1.3395         estimate D2E/DX2                !
 ! R31   R(15,50)                1.0877         estimate D2E/DX2                !
 ! R32   R(16,17)                1.4778         estimate D2E/DX2                !
 ! R33   R(16,51)                1.0877         estimate D2E/DX2                !
 ! R34   R(17,18)                1.3395         estimate D2E/DX2                !
 ! R35   R(17,52)                1.0877         estimate D2E/DX2                !
 ! R36   R(18,19)                1.4778         estimate D2E/DX2                !
 ! R37   R(18,53)                1.0877         estimate D2E/DX2                !
 ! R38   R(19,20)                1.3395         estimate D2E/DX2                !
 ! R39   R(19,54)                1.0877         estimate D2E/DX2                !
 ! R40   R(20,21)                1.4778         estimate D2E/DX2                !
 ! R41   R(20,55)                1.0877         estimate D2E/DX2                !
 ! R42   R(21,22)                1.3396         estimate D2E/DX2                !
 ! R43   R(21,56)                1.0877         estimate D2E/DX2                !
 ! R44   R(22,23)                1.4778         estimate D2E/DX2                !
 ! R45   R(22,57)                1.0877         estimate D2E/DX2                !
 ! R46   R(23,24)                1.3396         estimate D2E/DX2                !
 ! R47   R(23,58)                1.0877         estimate D2E/DX2                !
 ! R48   R(24,25)                1.4777         estimate D2E/DX2                !
 ! R49   R(24,59)                1.0877         estimate D2E/DX2                !
 ! R50   R(25,26)                1.3396         estimate D2E/DX2                !
 ! R51   R(25,60)                1.0877         estimate D2E/DX2                !
 ! R52   R(26,27)                1.4777         estimate D2E/DX2                !
 ! R53   R(26,61)                1.0877         estimate D2E/DX2                !
 ! R54   R(27,28)                1.3396         estimate D2E/DX2                !
 ! R55   R(27,62)                1.0877         estimate D2E/DX2                !
 ! R56   R(28,29)                1.4777         estimate D2E/DX2                !
 ! R57   R(28,63)                1.0877         estimate D2E/DX2                !
 ! R58   R(29,30)                1.3396         estimate D2E/DX2                !
 ! R59   R(29,64)                1.0877         estimate D2E/DX2                !
 ! R60   R(30,31)                1.4777         estimate D2E/DX2                !
 ! R61   R(30,65)                1.0877         estimate D2E/DX2                !
 ! R62   R(31,32)                1.3396         estimate D2E/DX2                !
 ! R63   R(31,66)                1.0877         estimate D2E/DX2                !
 ! R64   R(32,33)                1.4772         estimate D2E/DX2                !
 ! R65   R(32,67)                1.0877         estimate D2E/DX2                !
 ! R66   R(33,34)                1.335          estimate D2E/DX2                !
 ! R67   R(33,68)                1.0867         estimate D2E/DX2                !
 ! R68   R(34,69)                1.0861         estimate D2E/DX2                !
 ! R69   R(34,70)                1.0852         estimate D2E/DX2                !
 ! A1    A(2,1,35)             119.9688         estimate D2E/DX2                !
 ! A2    A(2,1,36)             121.1652         estimate D2E/DX2                !
 ! A3    A(35,1,36)            118.866          estimate D2E/DX2                !
 ! A4    A(1,2,3)              121.122          estimate D2E/DX2                !
 ! A5    A(1,2,37)             118.9593         estimate D2E/DX2                !
 ! A6    A(3,2,37)             119.9186         estimate D2E/DX2                !
 ! A7    A(2,3,4)              120.9202         estimate D2E/DX2                !
 ! A8    A(2,3,38)             119.2588         estimate D2E/DX2                !
 ! A9    A(4,3,38)             119.821          estimate D2E/DX2                !
 ! A10   A(3,4,5)              120.9462         estimate D2E/DX2                !
 ! A11   A(3,4,39)             119.7715         estimate D2E/DX2                !
 ! A12   A(5,4,39)             119.2823         estimate D2E/DX2                !
 ! A13   A(4,5,6)              120.9382         estimate D2E/DX2                !
 ! A14   A(4,5,40)             119.2785         estimate D2E/DX2                !
 ! A15   A(6,5,40)             119.7833         estimate D2E/DX2                !
 ! A16   A(5,6,7)              120.9496         estimate D2E/DX2                !
 ! A17   A(5,6,41)             119.7782         estimate D2E/DX2                !
 ! A18   A(7,6,41)             119.2721         estimate D2E/DX2                !
 ! A19   A(6,7,8)              120.9306         estimate D2E/DX2                !
 ! A20   A(6,7,42)             119.2837         estimate D2E/DX2                !
 ! A21   A(8,7,42)             119.7857         estimate D2E/DX2                !
 ! A22   A(7,8,9)              120.9584         estimate D2E/DX2                !
 ! A23   A(7,8,43)             119.774          estimate D2E/DX2                !
 ! A24   A(9,8,43)             119.2676         estimate D2E/DX2                !
 ! A25   A(8,9,10)             120.9188         estimate D2E/DX2                !
 ! A26   A(8,9,44)             119.291          estimate D2E/DX2                !
 ! A27   A(10,9,44)            119.7903         estimate D2E/DX2                !
 ! A28   A(9,10,11)            120.9723         estimate D2E/DX2                !
 ! A29   A(9,10,45)            119.7674         estimate D2E/DX2                !
 ! A30   A(11,10,45)           119.2603         estimate D2E/DX2                !
 ! A31   A(10,11,12)           120.902          estimate D2E/DX2                !
 ! A32   A(10,11,46)           119.3011         estimate D2E/DX2                !
 ! A33   A(12,11,46)           119.7969         estimate D2E/DX2                !
 ! A34   A(11,12,13)           120.9912         estimate D2E/DX2                !
 ! A35   A(11,12,47)           119.7588         estimate D2E/DX2                !
 ! A36   A(13,12,47)           119.25           estimate D2E/DX2                !
 ! A37   A(12,13,14)           120.8807         estimate D2E/DX2                !
 ! A38   A(12,13,48)           119.3137         estimate D2E/DX2                !
 ! A39   A(14,13,48)           119.8057         estimate D2E/DX2                !
 ! A40   A(13,14,15)           121.0144         estimate D2E/DX2                !
 ! A41   A(13,14,49)           119.7486         estimate D2E/DX2                !
 ! A42   A(15,14,49)           119.237          estimate D2E/DX2                !
 ! A43   A(14,15,16)           120.8562         estimate D2E/DX2                !
 ! A44   A(14,15,50)           119.3277         estimate D2E/DX2                !
 ! A45   A(16,15,50)           119.816          estimate D2E/DX2                !
 ! A46   A(15,16,17)           121.0394         estimate D2E/DX2                !
 ! A47   A(15,16,51)           119.7379         estimate D2E/DX2                !
 ! A48   A(17,16,51)           119.2226         estimate D2E/DX2                !
 ! A49   A(16,17,18)           120.8316         estimate D2E/DX2                !
 ! A50   A(16,17,52)           119.3415         estimate D2E/DX2                !
 ! A51   A(18,17,52)           119.827          estimate D2E/DX2                !
 ! A52   A(17,18,19)           121.063          estimate D2E/DX2                !
 ! A53   A(17,18,53)           119.7284         estimate D2E/DX2                !
 ! A54   A(19,18,53)           119.2086         estimate D2E/DX2                !
 ! A55   A(18,19,20)           120.8108         estimate D2E/DX2                !
 ! A56   A(18,19,54)           119.3525         estimate D2E/DX2                !
 ! A57   A(20,19,54)           119.8367         estimate D2E/DX2                !
 ! A58   A(19,20,21)           121.0806         estimate D2E/DX2                !
 ! A59   A(19,20,55)           119.7219         estimate D2E/DX2                !
 ! A60   A(21,20,55)           119.1975         estimate D2E/DX2                !
 ! A61   A(20,21,22)           120.7982         estimate D2E/DX2                !
 ! A62   A(20,21,56)           119.3584         estimate D2E/DX2                !
 ! A63   A(22,21,56)           119.8434         estimate D2E/DX2                !
 ! A64   A(21,22,23)           121.0883         estimate D2E/DX2                !
 ! A65   A(21,22,57)           119.7201         estimate D2E/DX2                !
 ! A66   A(23,22,57)           119.1917         estimate D2E/DX2                !
 ! A67   A(22,23,24)           120.7973         estimate D2E/DX2                !
 ! A68   A(22,23,58)           119.3573         estimate D2E/DX2                !
 ! A69   A(24,23,58)           119.8454         estimate D2E/DX2                !
 ! A70   A(23,24,25)           121.083          estimate D2E/DX2                !
 ! A71   A(23,24,59)           119.7239         estimate D2E/DX2                !
 ! A72   A(25,24,59)           119.193          estimate D2E/DX2                !
 ! A73   A(24,25,26)           120.8098         estimate D2E/DX2                !
 ! A74   A(24,25,60)           119.3486         estimate D2E/DX2                !
 ! A75   A(26,25,60)           119.8416         estimate D2E/DX2                !
 ! A76   A(25,26,27)           121.0645         estimate D2E/DX2                !
 ! A77   A(25,26,61)           119.7333         estimate D2E/DX2                !
 ! A78   A(27,26,61)           119.2022         estimate D2E/DX2                !
 ! A79   A(26,27,28)           120.8347         estimate D2E/DX2                !
 ! A80   A(26,27,62)           119.3332         estimate D2E/DX2                !
 ! A81   A(28,27,62)           119.8321         estimate D2E/DX2                !
 ! A82   A(27,28,29)           121.0351         estimate D2E/DX2                !
 ! A83   A(27,28,63)           119.7467         estimate D2E/DX2                !
 ! A84   A(29,28,63)           119.2182         estimate D2E/DX2                !
 ! A85   A(28,29,30)           120.8681         estimate D2E/DX2                !
 ! A86   A(28,29,64)           119.3136         estimate D2E/DX2                !
 ! A87   A(30,29,64)           119.8183         estimate D2E/DX2                !
 ! A88   A(29,30,31)           121.0005         estimate D2E/DX2                !
 ! A89   A(29,30,65)           119.7619         estimate D2E/DX2                !
 ! A90   A(31,30,65)           119.2376         estimate D2E/DX2                !
 ! A91   A(30,31,32)           120.9047         estimate D2E/DX2                !
 ! A92   A(30,31,66)           119.3017         estimate D2E/DX2                !
 ! A93   A(32,31,66)           119.7936         estimate D2E/DX2                !
 ! A94   A(31,32,33)           120.9459         estimate D2E/DX2                !
 ! A95   A(31,32,67)           119.8138         estimate D2E/DX2                !
 ! A96   A(33,32,67)           119.2403         estimate D2E/DX2                !
 ! A97   A(32,33,34)           121.1107         estimate D2E/DX2                !
 ! A98   A(32,33,68)           119.9224         estimate D2E/DX2                !
 ! A99   A(34,33,68)           118.9669         estimate D2E/DX2                !
 ! A100  A(33,34,69)           121.1649         estimate D2E/DX2                !
 ! A101  A(33,34,70)           119.9737         estimate D2E/DX2                !
 ! A102  A(69,34,70)           118.8614         estimate D2E/DX2                !
 ! D1    D(35,1,2,3)          -179.9999         estimate D2E/DX2                !
 ! D2    D(35,1,2,37)           -0.0001         estimate D2E/DX2                !
 ! D3    D(36,1,2,3)            -0.0002         estimate D2E/DX2                !
 ! D4    D(36,1,2,37)          179.9996         estimate D2E/DX2                !
 ! D5    D(1,2,3,4)            179.9971         estimate D2E/DX2                !
 ! D6    D(1,2,3,38)            -0.0021         estimate D2E/DX2                !
 ! D7    D(37,2,3,4)            -0.0027         estimate D2E/DX2                !
 ! D8    D(37,2,3,38)          179.9981         estimate D2E/DX2                !
 ! D9    D(2,3,4,5)           -179.9995         estimate D2E/DX2                !
 ! D10   D(2,3,4,39)            -0.0003         estimate D2E/DX2                !
 ! D11   D(38,3,4,5)            -0.0003         estimate D2E/DX2                !
 ! D12   D(38,3,4,39)          179.9989         estimate D2E/DX2                !
 ! D13   D(3,4,5,6)            179.9942         estimate D2E/DX2                !
 ! D14   D(3,4,5,40)            -0.0046         estimate D2E/DX2                !
 ! D15   D(39,4,5,6)            -0.005          estimate D2E/DX2                !
 ! D16   D(39,4,5,40)          179.9962         estimate D2E/DX2                !
 ! D17   D(4,5,6,7)           -179.9994         estimate D2E/DX2                !
 ! D18   D(4,5,6,41)            -0.0005         estimate D2E/DX2                !
 ! D19   D(40,5,6,7)            -0.0006         estimate D2E/DX2                !
 ! D20   D(40,5,6,41)          179.9983         estimate D2E/DX2                !
 ! D21   D(5,6,7,8)            179.9921         estimate D2E/DX2                !
 ! D22   D(5,6,7,42)            -0.0065         estimate D2E/DX2                !
 ! D23   D(41,6,7,8)            -0.0068         estimate D2E/DX2                !
 ! D24   D(41,6,7,42)          179.9946         estimate D2E/DX2                !
 ! D25   D(6,7,8,9)           -179.9998         estimate D2E/DX2                !
 ! D26   D(6,7,8,43)            -0.0008         estimate D2E/DX2                !
 ! D27   D(42,7,8,9)            -0.0011         estimate D2E/DX2                !
 ! D28   D(42,7,8,43)          179.9979         estimate D2E/DX2                !
 ! D29   D(7,8,9,10)           179.9913         estimate D2E/DX2                !
 ! D30   D(7,8,9,44)            -0.0078         estimate D2E/DX2                !
 ! D31   D(43,8,9,10)           -0.0078         estimate D2E/DX2                !
 ! D32   D(43,8,9,44)          179.9932         estimate D2E/DX2                !
 ! D33   D(8,9,10,11)          179.9993         estimate D2E/DX2                !
 ! D34   D(8,9,10,45)           -0.0012         estimate D2E/DX2                !
 ! D35   D(44,9,10,11)          -0.0017         estimate D2E/DX2                !
 ! D36   D(44,9,10,45)         179.9978         estimate D2E/DX2                !
 ! D37   D(9,10,11,12)         179.9913         estimate D2E/DX2                !
 ! D38   D(9,10,11,46)          -0.0083         estimate D2E/DX2                !
 ! D39   D(45,10,11,12)         -0.0082         estimate D2E/DX2                !
 ! D40   D(45,10,11,46)        179.9922         estimate D2E/DX2                !
 ! D41   D(10,11,12,13)        179.998          estimate D2E/DX2                !
 ! D42   D(10,11,12,47)         -0.0017         estimate D2E/DX2                !
 ! D43   D(46,11,12,13)         -0.0023         estimate D2E/DX2                !
 ! D44   D(46,11,12,47)        179.9979         estimate D2E/DX2                !
 ! D45   D(11,12,13,14)        179.9919         estimate D2E/DX2                !
 ! D46   D(11,12,13,48)         -0.0086         estimate D2E/DX2                !
 ! D47   D(47,12,13,14)         -0.0083         estimate D2E/DX2                !
 ! D48   D(47,12,13,48)        179.9912         estimate D2E/DX2                !
 ! D49   D(12,13,14,15)        179.9966         estimate D2E/DX2                !
 ! D50   D(12,13,14,49)         -0.0023         estimate D2E/DX2                !
 ! D51   D(48,13,14,15)         -0.0029         estimate D2E/DX2                !
 ! D52   D(48,13,14,49)        179.9982         estimate D2E/DX2                !
 ! D53   D(13,14,15,16)        179.9929         estimate D2E/DX2                !
 ! D54   D(13,14,15,50)         -0.0087         estimate D2E/DX2                !
 ! D55   D(49,14,15,16)         -0.0082         estimate D2E/DX2                !
 ! D56   D(49,14,15,50)        179.9902         estimate D2E/DX2                !
 ! D57   D(14,15,16,17)        179.9947         estimate D2E/DX2                !
 ! D58   D(14,15,16,51)         -0.0028         estimate D2E/DX2                !
 ! D59   D(50,15,16,17)         -0.0037         estimate D2E/DX2                !
 ! D60   D(50,15,16,51)        179.9988         estimate D2E/DX2                !
 ! D61   D(15,16,17,18)        179.9956         estimate D2E/DX2                !
 ! D62   D(15,16,17,52)         -0.008          estimate D2E/DX2                !
 ! D63   D(51,16,17,18)         -0.0069         estimate D2E/DX2                !
 ! D64   D(51,16,17,52)        179.9895         estimate D2E/DX2                !
 ! D65   D(16,17,18,19)        179.9914         estimate D2E/DX2                !
 ! D66   D(16,17,18,53)         -0.0034         estimate D2E/DX2                !
 ! D67   D(52,17,18,19)         -0.005          estimate D2E/DX2                !
 ! D68   D(52,17,18,53)       -179.9998         estimate D2E/DX2                !
 ! D69   D(17,18,19,20)       -179.9976         estimate D2E/DX2                !
 ! D70   D(17,18,19,54)         -0.0051         estimate D2E/DX2                !
 ! D71   D(53,18,19,20)         -0.0029         estimate D2E/DX2                !
 ! D72   D(53,18,19,54)        179.9897         estimate D2E/DX2                !
 ! D73   D(18,19,20,21)        179.9855         estimate D2E/DX2                !
 ! D74   D(18,19,20,55)         -0.0045         estimate D2E/DX2                !
 ! D75   D(54,19,20,21)         -0.007          estimate D2E/DX2                !
 ! D76   D(54,19,20,55)       -179.997          estimate D2E/DX2                !
 ! D77   D(19,20,21,22)       -179.9848         estimate D2E/DX2                !
 ! D78   D(19,20,21,56)          0.0017         estimate D2E/DX2                !
 ! D79   D(55,20,21,22)          0.0052         estimate D2E/DX2                !
 ! D80   D(55,20,21,56)        179.9917         estimate D2E/DX2                !
 ! D81   D(20,21,22,23)        179.9769         estimate D2E/DX2                !
 ! D82   D(20,21,22,57)         -0.0064         estimate D2E/DX2                !
 ! D83   D(56,21,22,23)         -0.0096         estimate D2E/DX2                !
 ! D84   D(56,21,22,57)       -179.9929         estimate D2E/DX2                !
 ! D85   D(21,22,23,24)       -179.9665         estimate D2E/DX2                !
 ! D86   D(21,22,23,58)          0.0126         estimate D2E/DX2                !
 ! D87   D(57,22,23,24)          0.0169         estimate D2E/DX2                !
 ! D88   D(57,22,23,58)        179.996          estimate D2E/DX2                !
 ! D89   D(22,23,24,25)        179.9671         estimate D2E/DX2                !
 ! D90   D(22,23,24,59)         -0.009          estimate D2E/DX2                !
 ! D91   D(58,23,24,25)         -0.0119         estimate D2E/DX2                !
 ! D92   D(58,23,24,59)       -179.988          estimate D2E/DX2                !
 ! D93   D(23,24,25,26)       -179.9473         estimate D2E/DX2                !
 ! D94   D(23,24,25,60)          0.0254         estimate D2E/DX2                !
 ! D95   D(59,24,25,26)          0.0289         estimate D2E/DX2                !
 ! D96   D(59,24,25,60)       -179.9984         estimate D2E/DX2                !
 ! D97   D(24,25,26,27)        179.9598         estimate D2E/DX2                !
 ! D98   D(24,25,26,61)         -0.0114         estimate D2E/DX2                !
 ! D99   D(60,25,26,27)         -0.0127         estimate D2E/DX2                !
 ! D100  D(60,25,26,61)       -179.984          estimate D2E/DX2                !
 ! D101  D(25,26,27,28)       -179.9351         estimate D2E/DX2                !
 ! D102  D(25,26,27,62)          0.0353         estimate D2E/DX2                !
 ! D103  D(61,26,27,28)          0.0363         estimate D2E/DX2                !
 ! D104  D(61,26,27,62)       -179.9933         estimate D2E/DX2                !
 ! D105  D(26,27,28,29)        179.959          estimate D2E/DX2                !
 ! D106  D(26,27,28,63)         -0.0126         estimate D2E/DX2                !
 ! D107  D(62,27,28,29)         -0.0111         estimate D2E/DX2                !
 ! D108  D(62,27,28,63)       -179.9828         estimate D2E/DX2                !
 ! D109  D(27,28,29,30)       -179.9371         estimate D2E/DX2                !
 ! D110  D(27,28,29,64)          0.0371         estimate D2E/DX2                !
 ! D111  D(63,28,29,30)          0.0347         estimate D2E/DX2                !
 ! D112  D(63,28,29,64)       -179.9911         estimate D2E/DX2                !
 ! D113  D(28,29,30,31)        179.967          estimate D2E/DX2                !
 ! D114  D(28,29,30,65)         -0.0114         estimate D2E/DX2                !
 ! D115  D(64,29,30,31)         -0.0071         estimate D2E/DX2                !
 ! D116  D(64,29,30,65)       -179.9855         estimate D2E/DX2                !
 ! D117  D(29,30,31,32)       -179.9549         estimate D2E/DX2                !
 ! D118  D(29,30,31,66)          0.0287         estimate D2E/DX2                !
 ! D119  D(65,30,31,32)          0.0236         estimate D2E/DX2                !
 ! D120  D(65,30,31,66)       -179.9928         estimate D2E/DX2                !
 ! D121  D(30,31,32,33)        179.9815         estimate D2E/DX2                !
 ! D122  D(30,31,32,67)         -0.0075         estimate D2E/DX2                !
 ! D123  D(66,31,32,33)         -0.0021         estimate D2E/DX2                !
 ! D124  D(66,31,32,67)       -179.9911         estimate D2E/DX2                !
 ! D125  D(31,32,33,34)       -179.9806         estimate D2E/DX2                !
 ! D126  D(31,32,33,68)          0.0135         estimate D2E/DX2                !
 ! D127  D(67,32,33,34)          0.0084         estimate D2E/DX2                !
 ! D128  D(67,32,33,68)       -179.9974         estimate D2E/DX2                !
 ! D129  D(32,33,34,69)         -0.0018         estimate D2E/DX2                !
 ! D130  D(32,33,34,70)        179.9954         estimate D2E/DX2                !
 ! D131  D(68,33,34,69)       -179.996          estimate D2E/DX2                !
 ! D132  D(68,33,34,70)          0.0012         estimate D2E/DX2                !
 --------------------------------------------------------------------------------
 Trust Radius=3.00D-01 FncErr=1.00D-07 GrdErr=1.00D-06 EigMax=2.50D+02 EigMin=1.00D-04
 Number of steps in this run=    313 maximum allowed number of steps=    420.
 GradGradGradGradGradGradGradGradGradGradGradGradGradGradGradGradGradGrad

 Stoichiometry    C34H36
 Framework group  C1[X(C34H36)]
 Deg. of freedom   204
 Full point group                 C1      NOp   1
 Largest Abelian subgroup         C1      NOp   1
 Largest concise Abelian subgroup C1      NOp   1
                         Standard orientation:                         
 ---------------------------------------------------------------------
 Center     Atomic      Atomic             Coordinates (Angstroms)
 Number     Number       Type             X           Y           Z
 ---------------------------------------------------------------------
      1          6           0       20.193153    0.172368    0.006619
      2          6           0       19.037116   -0.495299    0.005356
      3          6           0       17.743413    0.217963    0.005656
      4          6           0       16.585813   -0.456057    0.004327
      5          6           0       15.291348    0.256859    0.004615
      6          6           0       14.133811   -0.417340    0.003169
      7          6           0       12.839208    0.295315    0.003444
      8          6           0       11.681910   -0.379261    0.001840
      9          6           0       10.386956    0.332766    0.002108
     10          6           0        9.230137   -0.342605    0.000328
     11          6           0        7.934510    0.368216    0.000610
     12          6           0        6.778530   -0.308566   -0.001346
     13          6           0        5.481792    0.400241   -0.001025
     14          6           0        4.327127   -0.278766   -0.003146
     15          6           0        3.028734    0.427015   -0.002757
     16          6           0        1.875950   -0.255175   -0.005025
     17          6           0        0.575308    0.446449   -0.004529
     18          6           0       -0.574998   -0.239921   -0.006892
     19          6           0       -1.878453    0.456439   -0.006218
     20          6           0       -3.025739   -0.234995   -0.008543
     21          6           0       -4.332442    0.455209   -0.007565
     22          6           0       -5.476323   -0.241884   -0.009598
     23          6           0       -6.786481    0.441682   -0.008125
     24          6           0       -7.926829   -0.261225   -0.009499
     25          6           0       -9.240354    0.415784   -0.007313
     26          6           0      -10.377357   -0.292570   -0.007643
     27          6           0      -11.693857    0.378582   -0.004578
     28          6           0      -12.828025   -0.334340   -0.003618
     29          6           0      -14.146854    0.332195    0.000350
     30          6           0      -15.278949   -0.384038    0.002561
     31          6           0      -16.599324    0.279454    0.007261
     32          6           0      -17.730175   -0.438645    0.010371
     33          6           0      -19.050602    0.223686    0.015478
     34          6           0      -20.179650   -0.488720    0.018973
     35          1           0       21.132763   -0.370613    0.006370
     36          1           0       20.215077    1.258207    0.007897
     37          1           0       19.057016   -1.581864    0.004087
     38          1           0       17.736021    1.305646    0.006963
     39          1           0       16.594145   -1.543733    0.003002
     40          1           0       15.283089    1.344514    0.006003
     41          1           0       14.142167   -1.505007    0.001753
     42          1           0       12.830632    1.382964    0.004950
     43          1           0       11.690709   -1.466931    0.000299
     44          1           0       10.377713    1.420405    0.003761
     45          1           0        9.239814   -1.430273   -0.001361
     46          1           0        7.924059    1.455839    0.002427
     47          1           0        6.789705   -1.396227   -0.003197
     48          1           0        5.469408    1.487837    0.000971
     49          1           0        4.340594   -1.366409   -0.005171
     50          1           0        3.013545    1.514569   -0.000572
     51          1           0        1.892622   -1.342780   -0.007229
     52          1           0        0.556381    1.533938   -0.002153
     53          1           0       -0.554198   -1.327460   -0.009263
     54          1           0       -1.901981    1.543834   -0.003679
     55          1           0       -3.000029   -1.322431   -0.011033
     56          1           0       -4.361203    1.542476   -0.004941
     57          1           0       -5.445219   -1.329179   -0.012104
     58          1           0       -6.820726    1.528791   -0.005553
     59          1           0       -7.890277   -1.348348   -0.011872
     60          1           0       -9.279855    1.502718   -0.004965
     61          1           0      -10.335798   -1.379507   -0.009729
     62          1           0      -11.737897    1.465346   -0.002599
     63          1           0      -12.782361   -1.421106   -0.005317
     64          1           0      -14.194325    1.418821    0.001906
     65          1           0      -15.230405   -1.470673    0.001242
     66          1           0      -16.649082    1.365996    0.008465
     67          1           0      -17.680799   -1.525257    0.009315
     68          1           0      -19.112853    1.308626    0.016535
     69          1           0      -20.159066   -1.574610    0.018130
     70          1           0      -21.139811    0.016990    0.022779
 ---------------------------------------------------------------------
 Rotational constants (GHZ):           4.1195107           0.0077909           0.0077762
 Standard basis: 6-31G(d,p) (6D, 7F)
 There are   690 symmetry adapted cartesian basis functions of A   symmetry.
 There are   690 symmetry adapted basis functions of A   symmetry.
   690 basis functions,  1204 primitive gaussians,   690 cartesian basis functions
   120 alpha electrons      120 beta electrons
       nuclear repulsion energy      2199.8621186167 Hartrees.
 NAtoms=   70 NActive=   70 NUniq=   70 SFac= 1.00D+00 NAtFMM=   60 NAOKFM=T Big=T
 Integral buffers will be    131072 words long.
 Raffenetti 2 integral format.
 Two-electron integral symmetry is turned on.
 One-electron integrals computed using PRISM.
 NBasis=   690 RedAO= T EigKep=  1.09D-03  NBF=   690
 NBsUse=   690 1.00D-06 EigRej= -1.00D+00 NBFU=   690
 ExpMin= 1.61D-01 ExpMax= 3.05D+03 ExpMxC= 4.57D+02 IAcc=3 IRadAn=         5 AccDes= 0.00D+00
 Harris functional with IExCor=  402 and IRadAn=       5 diagonalized for initial guess.
 HarFok:  IExCor=  402 AccDes= 0.00D+00 IRadAn=         5 IDoV= 1 UseB2=F ITyADJ=14
 ICtDFT=  3500011 ScaDFX=  1.000000  1.000000  1.000000  1.000000
 FoFCou: FMM=F IPFlag=           0 FMFlag=      100000 FMFlg1=        2001
         NFxFlg=           0 DoJE=T BraDBF=F KetDBF=T FulRan=T
         wScrn=  0.000000 ICntrl=       500 IOpCl=  0 I1Cent=   200000004 NGrid=           0
         NMat0=    1 NMatS0=      1 NMatT0=    0 NMatD0=    1 NMtDS0=    0 NMtDT0=    0
 Petite list used in FoFCou.
 Requested convergence on RMS density matrix=1.00D-08 within 128 cycles.
 Requested convergence on MAX density matrix=1.00D-06.
 Requested convergence on             energy=1.00D-06.
 No special actions if energy rises.
 Integral accuracy reduced to 1.0D-05 until final iterations.
 Initial convergence to 1.0D-05 achieved.  Increase integral accuracy.
 SCF Done:  E(RB3LYP) =  -1317.12194731     A.U. after   13 cycles
            NFock= 13  Conv=0.67D-08     -V/T= 2.0100

 **********************************************************************

            Population analysis using the SCF Density.

 **********************************************************************

 Orbital symmetries:
       Occupied  (A) (A) (A) (A) (A) (A) (A) (A) (A) (A) (A) (A)
                 (A) (A) (A) (A) (A) (A) (A) (A) (A) (A) (A) (A)
                 (A) (A) (A) (A) (A) (A) (A) (A) (A) (A) (A) (A)
                 (A) (A) (A) (A) (A) (A) (A) (A) (A) (A) (A) (A)
                 (A) (A) (A) (A) (A) (A) (A) (A) (A) (A) (A) (A)
                 (A) (A) (A) (A) (A) (A) (A) (A) (A) (A) (A) (A)
                 (A) (A) (A) (A) (A) (A) (A) (A) (A) (A) (A) (A)
                 (A) (A) (A) (A) (A) (A) (A) (A) (A) (A) (A) (A)
                 (A) (A) (A) (A) (A) (A) (A) (A) (A) (A) (A) (A)
                 (A) (A) (A) (A) (A) (A) (A) (A) (A) (A) (A) (A)
       Virtual   (A) (A) (A) (A) (A) (A) (A) (A) (A) (A) (A) (A)
                 (A) (A) (A) (A) (A) (A) (A) (A) (A) (A) (A) (A)
                 (A) (A) (A) (A) (A) (A) (A) (A) (A) (A) (A) (A)
                 (A) (A) (A) (A) (A) (A) (A) (A) (A) (A) (A) (A)
                 (A) (A) (A) (A) (A) (A) (A) (A) (A) (A) (A) (A)
                 (A) (A) (A) (A) (A) (A) (A) (A) (A) (A) (A) (A)
                 (A) (A) (A) (A) (A) (A) (A) (A) (A) (A) (A) (A)
                 (A) (A) (A) (A) (A) (A) (A) (A) (A) (A) (A) (A)
                 (A) (A) (A) (A) (A) (A) (A) (A) (A) (A) (A) (A)
                 (A) (A) (A) (A) (A) (A) (A) (A) (A) (A) (A) (A)
                 (A) (A) (A) (A) (A) (A) (A) (A) (A) (A) (A) (A)
                 (A) (A) (A) (A) (A) (A) (A) (A) (A) (A) (A) (A)
                 (A) (A) (A) (A) (A) (A) (A) (A) (A) (A) (A) (A)
                 (A) (A) (A) (A) (A) (A) (A) (A) (A) (A) (A) (A)
                 (A) (A) (A) (A) (A) (A) (A) (A) (A) (A) (A) (A)
                 (A) (A) (A) (A) (A) (A) (A) (A) (A) (A) (A) (A)
                 (A) (A) (A) (A) (A) (A) (A) (A) (A) (A) (A) (A)
                 (A) (A) (A) (A) (A) (A) (A) (A) (A) (A) (A) (A)
                 (A) (A) (A) (A) (A) (A) (A) (A) (A) (A) (A) (A)
                 (A) (A) (A) (A) (A) (A) (A) (A) (A) (A) (A) (A)
                 (A) (A) (A) (A) (A) (A) (A) (A) (A) (A) (A) (A)
                 (A) (A) (A) (A) (A) (A) (A) (A) (A) (A) (A) (A)
                 (A) (A) (A) (A) (A) (A) (A) (A) (A) (A) (A) (A)
                 (A) (A) (A) (A) (A) (A) (A) (A) (A) (A) (A) (A)
                 (A) (A) (A) (A) (A) (A) (A) (A) (A) (A) (A) (A)
                 (A) (A) (A) (A) (A) (A) (A) (A) (A) (A) (A) (A)
                 (A) (A) (A) (A) (A) (A) (A) (A) (A) (A) (A) (A)
                 (A) (A) (A) (A) (A) (A) (A) (A) (A) (A) (A) (A)
                 (A) (A) (A) (A) (A) (A) (A) (A) (A) (A) (A) (A)
                 (A) (A) (A) (A) (A) (A) (A) (A) (A) (A) (A) (A)
                 (A) (A) (A) (A) (A) (A) (A) (A) (A) (A) (A) (A)
                 (A) (A) (A) (A) (A) (A) (A) (A) (A) (A) (A) (A)
                 (A) (A) (A) (A) (A) (A) (A) (A) (A) (A) (A) (A)
                 (A) (A) (A) (A) (A) (A) (A) (A) (A) (A) (A) (A)
                 (A) (A) (A) (A) (A) (A) (A) (A) (A) (A) (A) (A)
                 (A) (A) (A) (A) (A) (A) (A) (A) (A) (A) (A) (A)
                 (A) (A) (A) (A) (A) (A) (A) (A) (A) (A) (A) (A)
                 (A) (A) (A) (A) (A) (A) (A) (A) (A) (A) (A) (A)
                 (A) (A) (A) (A) (A) (A) (A) (A) (A) (A) (A) (A)
                 (A) (A) (A) (A) (A) (A) (A) (A) (A) (A) (A) (A)
                 (A) (A) (A) (A) (A) (A) (A) (A) (A) (A) (A) (A)
                 (A) (A) (A) (A) (A) (A) (A) (A) (A) (A) (A) (A)
                 (A) (A) (A) (A) (A) (A) (A) (A) (A) (A) (A) (A)
                 (A) (A) (A) (A) (A) (A) (A) (A) (A) (A) (A) (A)
                 (A) (A) (A) (A) (A) (A) (A) (A) (A) (A) (A) (A)
                 (A) (A) (A) (A) (A) (A) (A) (A) (A) (A) (A) (A)
                 (A) (A) (A) (A) (A) (A) (A) (A) (A) (A) (A) (A)
                 (A) (A) (A) (A) (A) (A)
 The electronic state is 1-A.
 Alpha  occ. eigenvalues --  -10.19143 -10.19125 -10.19112 -10.19101 -10.19092
 Alpha  occ. eigenvalues --  -10.19092 -10.19087 -10.19081 -10.19080 -10.19075
 Alpha  occ. eigenvalues --  -10.19074 -10.19071 -10.19068 -10.19064 -10.19059
 Alpha  occ. eigenvalues --  -10.19054 -10.19048 -10.19019 -10.19008 -10.19002
 Alpha  occ. eigenvalues --  -10.18998 -10.18994 -10.18990 -10.18987 -10.18984
 Alpha  occ. eigenvalues --  -10.18980 -10.18976 -10.18972 -10.18967 -10.18962
 Alpha  occ. eigenvalues --  -10.18944 -10.18921 -10.17925 -10.17904  -0.82943
 Alpha  occ. eigenvalues --   -0.82782  -0.82499  -0.82106  -0.81604  -0.80997
 Alpha  occ. eigenvalues --   -0.80284  -0.79469  -0.78554  -0.77542  -0.76438
 Alpha  occ. eigenvalues --   -0.75249  -0.73987  -0.72673  -0.71347  -0.70101
 Alpha  occ. eigenvalues --   -0.69115  -0.63688  -0.62572  -0.61062  -0.59387
 Alpha  occ. eigenvalues --   -0.57678  -0.57064  -0.56924  -0.56679  -0.56363
 Alpha  occ. eigenvalues --   -0.56061  -0.55943  -0.55457  -0.55015  -0.54719
 Alpha  occ. eigenvalues --   -0.54486  -0.54065  -0.54053  -0.48619  -0.48453
 Alpha  occ. eigenvalues --   -0.48055  -0.47785  -0.46920  -0.46864  -0.45956
 Alpha  occ. eigenvalues --   -0.45391  -0.44898  -0.44399  -0.43433  -0.42243
 Alpha  occ. eigenvalues --   -0.41727  -0.41407  -0.40492  -0.40258  -0.39597
 Alpha  occ. eigenvalues --   -0.39113  -0.38734  -0.38317  -0.38019  -0.37735
 Alpha  occ. eigenvalues --   -0.37573  -0.37442  -0.37341  -0.37187  -0.36816
 Alpha  occ. eigenvalues --   -0.36496  -0.36189  -0.35824  -0.35319  -0.35300
 Alpha  occ. eigenvalues --   -0.35088  -0.34721  -0.34643  -0.34210  -0.33895
 Alpha  occ. eigenvalues --   -0.33556  -0.33242  -0.32795  -0.32762  -0.31829
 Alpha  occ. eigenvalues --   -0.30758  -0.29553  -0.28217  -0.26755  -0.25176
 Alpha  occ. eigenvalues --   -0.23495  -0.21740  -0.19968  -0.18301  -0.16989
 Alpha virt. eigenvalues --   -0.07536  -0.06184  -0.04370  -0.02384  -0.00375
 Alpha virt. eigenvalues --    0.01571   0.03393   0.05040   0.06471   0.07656
 Alpha virt. eigenvalues --    0.08195   0.08450   0.08577   0.08872   0.09235
 Alpha virt. eigenvalues --    0.09442   0.09654   0.09877   0.09948   0.09975
 Alpha virt. eigenvalues --    0.09976   0.10148   0.10977   0.11913   0.12596
 Alpha virt. eigenvalues --    0.12636   0.12996   0.13761   0.13794   0.13980
 Alpha virt. eigenvalues --    0.14095   0.14229   0.14412   0.14438   0.14758
 Alpha virt. eigenvalues --    0.14918   0.15178   0.15306   0.15392   0.15602
 Alpha virt. eigenvalues --    0.15756   0.15877   0.16510   0.16775   0.17399
 Alpha virt. eigenvalues --    0.17932   0.19093   0.19793   0.19852   0.20256
 Alpha virt. eigenvalues --    0.20814   0.21179   0.21261   0.24879   0.25884
 Alpha virt. eigenvalues --    0.27390   0.29190   0.30409   0.30581   0.31138
 Alpha virt. eigenvalues --    0.31451   0.31519   0.32906   0.33158   0.33498
 Alpha virt. eigenvalues --    0.34538   0.34955   0.35450   0.35725   0.36604
 Alpha virt. eigenvalues --    0.36614   0.36792   0.37128   0.37174   0.37842
 Alpha virt. eigenvalues --    0.38824   0.40721   0.41249   0.41410   0.41834
 Alpha virt. eigenvalues --    0.42061   0.42316   0.42353   0.42418   0.44682
 Alpha virt. eigenvalues --    0.45370   0.47268   0.48292   0.50780   0.51597
 Alpha virt. eigenvalues --    0.51646   0.51789   0.52044   0.52409   0.52888
 Alpha virt. eigenvalues --    0.53482   0.53735   0.54131   0.54192   0.55013
 Alpha virt. eigenvalues --    0.55943   0.56170   0.56389   0.56623   0.56983
 Alpha virt. eigenvalues --    0.57189   0.57772   0.58133   0.58170   0.58522
 Alpha virt. eigenvalues --    0.58709   0.58794   0.58942   0.58978   0.59156
 Alpha virt. eigenvalues --    0.59359   0.59418   0.59544   0.59565   0.59968
 Alpha virt. eigenvalues --    0.60268   0.60841   0.60860   0.60874   0.61333
 Alpha virt. eigenvalues --    0.61604   0.62141   0.62499   0.62783   0.63297
 Alpha virt. eigenvalues --    0.63334   0.64108   0.64424   0.64531   0.65250
 Alpha virt. eigenvalues --    0.65377   0.65714   0.66169   0.66415   0.66695
 Alpha virt. eigenvalues --    0.67176   0.67433   0.68223   0.69029   0.69076
 Alpha virt. eigenvalues --    0.69804   0.69855   0.69996   0.71620   0.71870
 Alpha virt. eigenvalues --    0.73689   0.73897   0.75416   0.75550   0.76593
 Alpha virt. eigenvalues --    0.76633   0.78598   0.78678   0.78881   0.79255
 Alpha virt. eigenvalues --    0.79830   0.80605   0.81543   0.82548   0.83330
 Alpha virt. eigenvalues --    0.83749   0.84354   0.84490   0.84589   0.84761
 Alpha virt. eigenvalues --    0.85000   0.85293   0.85410   0.85628   0.85975
 Alpha virt. eigenvalues --    0.86300   0.86548   0.86580   0.86843   0.86991
 Alpha virt. eigenvalues --    0.87223   0.87450   0.87686   0.87724   0.87907
 Alpha virt. eigenvalues --    0.87975   0.88704   0.89388   0.89814   0.90028
 Alpha virt. eigenvalues --    0.91064   0.91169   0.91385   0.91797   0.91905
 Alpha virt. eigenvalues --    0.92348   0.93176   0.93180   0.94475   0.95153
 Alpha virt. eigenvalues --    0.96180   0.97678   0.98297   0.99567   1.01648
 Alpha virt. eigenvalues --    1.02497   1.02501   1.03160   1.03167   1.04138
 Alpha virt. eigenvalues --    1.04183   1.05294   1.05344   1.05623   1.06313
 Alpha virt. eigenvalues --    1.06362   1.06503   1.07438   1.08531   1.08840
 Alpha virt. eigenvalues --    1.09667   1.10107   1.10393   1.10953   1.12723
 Alpha virt. eigenvalues --    1.12869   1.14619   1.16360   1.16623   1.16934
 Alpha virt. eigenvalues --    1.19243   1.19830   1.22117   1.23141   1.24968
 Alpha virt. eigenvalues --    1.26217   1.28285   1.28438   1.29431   1.29440
 Alpha virt. eigenvalues --    1.29808   1.29830   1.30097   1.30410   1.30411
 Alpha virt. eigenvalues --    1.30749   1.31043   1.31151   1.31303   1.31542
 Alpha virt. eigenvalues --    1.31792   1.31996   1.32396   1.32724   1.32928
 Alpha virt. eigenvalues --    1.32986   1.33216   1.33402   1.33696   1.33727
 Alpha virt. eigenvalues --    1.33979   1.34424   1.34738   1.34931   1.35791
 Alpha virt. eigenvalues --    1.36391   1.37208   1.38114   1.38134   1.39133
 Alpha virt. eigenvalues --    1.40187   1.41291   1.42438   1.43389   1.43618
 Alpha virt. eigenvalues --    1.44817   1.46014   1.47184   1.47919   1.48298
 Alpha virt. eigenvalues --    1.49325   1.50066   1.50231   1.50984   1.51081
 Alpha virt. eigenvalues --    1.51137   1.51555   1.51924   1.52121   1.52820
 Alpha virt. eigenvalues --    1.53146   1.54517   1.54595   1.76356   1.76444
 Alpha virt. eigenvalues --    1.76569   1.76573   1.76614   1.76687   1.76740
 Alpha virt. eigenvalues --    1.76775   1.77062   1.77127   1.77571   1.77575
 Alpha virt. eigenvalues --    1.78136   1.78206   1.78692   1.78727   1.82202
 Alpha virt. eigenvalues --    1.82925   1.84111   1.85706   1.86252   1.86270
 Alpha virt. eigenvalues --    1.87650   1.89872   1.91273   1.92001   1.92075
 Alpha virt. eigenvalues --    1.92082   1.92291   1.92589   1.92910   1.93225
 Alpha virt. eigenvalues --    1.93482   1.94149   1.94530   1.94601   1.94823
 Alpha virt. eigenvalues --    1.95331   1.95633   1.96061   1.96699   1.96990
 Alpha virt. eigenvalues --    1.97383   1.98293   1.98332   1.99896   2.02299
 Alpha virt. eigenvalues --    2.03067   2.03633   2.04549   2.04752   2.06614
 Alpha virt. eigenvalues --    2.06685   2.07808   2.07937   2.08465   2.09251
 Alpha virt. eigenvalues --    2.09544   2.09881   2.10047   2.11230   2.11776
 Alpha virt. eigenvalues --    2.11848   2.12376   2.14416   2.15599   2.15803
 Alpha virt. eigenvalues --    2.17401   2.17675   2.17708   2.17898   2.18768
 Alpha virt. eigenvalues --    2.18947   2.19808   2.19838   2.20121   2.20943
 Alpha virt. eigenvalues --    2.21403   2.22235   2.22742   2.23199   2.23827
 Alpha virt. eigenvalues --    2.24121   2.24141   2.24148   2.25539   2.26121
 Alpha virt. eigenvalues --    2.26998   2.28502   2.30050   2.30499   2.31638
 Alpha virt. eigenvalues --    2.33240   2.34805   2.35560   2.36225   2.37332
 Alpha virt. eigenvalues --    2.37994   2.40834   2.41593   2.41611   2.44394
 Alpha virt. eigenvalues --    2.44454   2.44929   2.45114   2.45878   2.45906
 Alpha virt. eigenvalues --    2.46801   2.47770   2.48144   2.48391   2.48686
 Alpha virt. eigenvalues --    2.48975   2.49158   2.49697   2.50218   2.50243
 Alpha virt. eigenvalues --    2.50909   2.51207   2.51349   2.51989   2.52054
 Alpha virt. eigenvalues --    2.52412   2.52560   2.53451   2.53650   2.53832
 Alpha virt. eigenvalues --    2.53902   2.54321   2.54841   2.55566   2.56281
 Alpha virt. eigenvalues --    2.56602   2.56994   2.57652   2.57797   2.58371
 Alpha virt. eigenvalues --    2.58928   2.59843   2.60503   2.61239   2.61909
 Alpha virt. eigenvalues --    2.62024   2.62497   2.62610   2.64107   2.64633
 Alpha virt. eigenvalues --    2.65031   2.65411   2.65830   2.66274   2.67657
 Alpha virt. eigenvalues --    2.67798   2.67883   2.69000   2.69025   2.69143
 Alpha virt. eigenvalues --    2.70045   2.70071   2.70648   2.70665   2.70859
 Alpha virt. eigenvalues --    2.71056   2.71195   2.72107   2.72245   2.73267
 Alpha virt. eigenvalues --    2.73398   2.75097   2.75884   2.76960   2.78567
 Alpha virt. eigenvalues --    2.80140   2.80425   2.81477   2.83576   2.84003
 Alpha virt. eigenvalues --    2.85996   2.86215   2.86282   2.87811   2.88293
 Alpha virt. eigenvalues --    2.90038   2.91082   2.91279   2.91430   2.91596
 Alpha virt. eigenvalues --    2.91954   2.92009   2.92163   2.93090   2.93174
 Alpha virt. eigenvalues --    2.93282   2.93639   2.94488   2.95214   2.95817
 Alpha virt. eigenvalues --    2.96703   2.97072   2.97996   2.98208   2.99032
 Alpha virt. eigenvalues --    2.99158   2.99747   2.99842   3.00159   3.00256
 Alpha virt. eigenvalues --    3.28031   3.28047   3.35182   3.35304   3.35534
 Alpha virt. eigenvalues --    3.35886   3.36387   3.37062   3.37916   3.38908
 Alpha virt. eigenvalues --    3.39985   3.41132   3.42396   3.43846   3.45537
 Alpha virt. eigenvalues --    3.47485   3.49669   3.51203   3.52014   3.52575
 Alpha virt. eigenvalues --    3.54255   3.54661   3.57199   3.58810   3.59925
 Alpha virt. eigenvalues --    3.60912   3.62588   3.63212   3.64963   3.65311
 Alpha virt. eigenvalues --    3.66855   3.67004   3.68102   3.68137   3.71063
 Alpha virt. eigenvalues --    3.71078   4.13732   4.13762   4.13842   4.13923
 Alpha virt. eigenvalues --    4.13997   4.14078   4.14200   4.14395   4.14690
 Alpha virt. eigenvalues --    4.15111   4.15684   4.16433   4.17381   4.18547
 Alpha virt. eigenvalues --    4.19939   4.21521   4.25209   4.25893   4.28734
 Alpha virt. eigenvalues --    4.31547   4.34662   4.38047   4.41666   4.45473
 Alpha virt. eigenvalues --    4.49407   4.53400   4.57364   4.61204   4.64817
 Alpha virt. eigenvalues --    4.68098   4.70943   4.73261   4.74977   4.76039
          Condensed to atoms (all electrons):
 Mulliken charges:
               1
     1  C   -0.251966
     2  C   -0.033560
     3  C   -0.077892
     4  C   -0.076668
     5  C   -0.080854
     6  C   -0.078888
     7  C   -0.079978
     8  C   -0.079543
     9  C   -0.079890
    10  C   -0.079680
    11  C   -0.079848
    12  C   -0.079763
    13  C   -0.079805
    14  C   -0.079825
    15  C   -0.079761
    16  C   -0.079878
    17  C   -0.079713
    18  C   -0.079920
    19  C   -0.079661
    20  C   -0.079949
    21  C   -0.079609
    22  C   -0.079965
    23  C   -0.079559
    24  C   -0.079969
    25  C   -0.079498
    26  C   -0.079967
    27  C   -0.079394
    28  C   -0.080008
    29  C   -0.078779
    30  C   -0.080839
    31  C   -0.076601
    32  C   -0.077846
    33  C   -0.033558
    34  C   -0.251883
    35  H    0.095325
    36  H    0.095490
    37  H    0.083680
    38  H    0.081566
    39  H    0.080922
    40  H    0.080517
    41  H    0.080168
    42  H    0.080118
    43  H    0.079988
    44  H    0.079978
    45  H    0.079903
    46  H    0.079919
    47  H    0.079852
    48  H    0.079896
    49  H    0.079820
    50  H    0.079894
    51  H    0.079800
    52  H    0.079908
    53  H    0.079795
    54  H    0.079932
    55  H    0.079805
    56  H    0.079964
    57  H    0.079834
    58  H    0.080003
    59  H    0.079887
    60  H    0.080051
    61  H    0.079976
    62  H    0.080126
    63  H    0.080145
    64  H    0.080289
    65  H    0.080568
    66  H    0.081021
    67  H    0.081633
    68  H    0.083760
    69  H    0.095561
    70  H    0.095422
 Sum of Mulliken charges =  -0.00000
 Mulliken charges with hydrogens summed into heavy atoms:
               1
     1  C   -0.061151
     2  C    0.050121
     3  C    0.003674
     4  C    0.004254
     5  C   -0.000336
     6  C    0.001280
     7  C    0.000139
     8  C    0.000445
     9  C    0.000088
    10  C    0.000222
    11  C    0.000071
    12  C    0.000089
    13  C    0.000090
    14  C   -0.000005
    15  C    0.000133
    16  C   -0.000077
    17  C    0.000195
    18  C   -0.000125
    19  C    0.000271
    20  C   -0.000144
    21  C    0.000355
    22  C   -0.000131
    23  C    0.000445
    24  C   -0.000082
    25  C    0.000553
    26  C    0.000010
    27  C    0.000732
    28  C    0.000137
    29  C    0.001509
    30  C   -0.000271
    31  C    0.004420
    32  C    0.003787
    33  C    0.050202
    34  C   -0.060900
 Electronic spatial extent (au):  <R**2>=         126910.8563
 Charge=             -0.0000 electrons
 Dipole moment (field-independent basis, Debye):
    X=             -0.1001    Y=              0.0104    Z=              0.0017  Tot=              0.1006
 Quadrupole moment (field-independent basis, Debye-Ang):
   XX=           -199.6600   YY=           -177.7635   ZZ=           -221.0600
   XY=             -2.7131   XZ=             -0.0333   YZ=              0.0718
 Traceless Quadrupole moment (field-independent basis, Debye-Ang):
   XX=             -0.1655   YY=             21.7310   ZZ=            -21.5655
   XY=             -2.7131   XZ=             -0.0333   YZ=              0.0718
 Octapole moment (field-independent basis, Debye-Ang**2):
  XXX=            -28.4009  YYY=              0.1898  ZZZ=             -0.0092  XYY=              0.7930
  XXY=              6.3484  XXZ=              1.0261  XZZ=             -0.0818  YZZ=              0.0465
  YYZ=              0.0024  XYZ=             -0.0321
 Hexadecapole moment (field-independent basis, Debye-Ang**3):
 XXXX=        -172733.8818 YYYY=           -584.8461 ZZZZ=           -229.3206 XXXY=          -1187.2111
 XXXZ=            -19.7172 YYYX=             -1.3871 YYYZ=              0.1443 ZZZX=              0.0858
 ZZZY=              0.0627 XXYY=         -26371.0587 XXZZ=         -32678.8849 YYZZ=           -152.7725
 XXYZ=              8.2465 YYXZ=              0.0114 ZZXY=             -2.1582
 N-N= 2.199862118617D+03 E-N=-7.446512144686D+03  KE= 1.304086650624D+03
 Calling FoFJK, ICntrl=      2127 FMM=T ISym2X=0 I1Cent= 0 IOpClX= 0 NMat=1 NMatS=1 NMatT=0.
 ***** Axes restored to original set *****
 -------------------------------------------------------------------
 Center     Atomic                   Forces (Hartrees/Bohr)
 Number     Number              X              Y              Z
 -------------------------------------------------------------------
      1        6          -0.008400784    0.004075108   -0.000189921
      2        6           0.010731315   -0.022499728    0.001271795
      3        6          -0.021241479    0.023804135   -0.001283418
      4        6           0.024698023   -0.025854658    0.001384508
      5        6          -0.026815606    0.025031414   -0.001321474
      6        6           0.027620143   -0.025677086    0.001356070
      7        6          -0.028343255    0.025365629   -0.001331781
      8        6           0.028627754   -0.025587915    0.001345072
      9        6          -0.028901455    0.025459358   -0.001334296
     10        6           0.029031639   -0.025541078    0.001340872
     11        6          -0.029147284    0.025471148   -0.001334553
     12        6           0.029231327   -0.025491391    0.001338445
     13        6          -0.029282735    0.025438515   -0.001333634
     14        6           0.029361130   -0.025424456    0.001336200
     15        6          -0.029382419    0.025371690   -0.001331795
     16        6           0.029471501   -0.025333286    0.001333497
     17        6          -0.029474349    0.025275105   -0.001329437
     18        6           0.029578701   -0.025216507    0.001330638
     19        6          -0.029566070    0.025153061   -0.001327543
     20        6           0.029681012   -0.025076566    0.001328767
     21        6          -0.029650118    0.025013060   -0.001327904
     22        6           0.029761693   -0.024919424    0.001329661
     23        6          -0.029701396    0.024867392   -0.001332504
     24        6           0.029783723   -0.024751966    0.001334746
     25        6          -0.029661590    0.024734427   -0.001342775
     26        6           0.029664998   -0.024576468    0.001343768
     27        6          -0.029390268    0.024642872   -0.001358874
     28        6           0.029197459   -0.024371462    0.001353200
     29        6          -0.028484852    0.024660194   -0.001381923
     30        6           0.027717044   -0.024008755    0.001352595
     31        6          -0.025636950    0.024885407   -0.001415918
     32        6           0.022127838   -0.022955191    0.001312778
     33        6          -0.011583078    0.022053706   -0.001285167
     34        6           0.008530381   -0.003736360    0.000202618
     35        1          -0.002745552   -0.003533185    0.000227340
     36        1          -0.002397732    0.000476809   -0.000013065
     37        1           0.005366164    0.000205959   -0.000045905
     38        1          -0.003412752    0.000569916   -0.000012099
     39        1           0.003194853   -0.000416193    0.000004634
     40        1          -0.003200319    0.000482702   -0.000008083
     41        1           0.003206578   -0.000434282    0.000005503
     42        1          -0.003211173    0.000463873   -0.000006734
     43        1           0.003208212   -0.000449708    0.000006204
     44        1          -0.003213700    0.000453723   -0.000005990
     45        1           0.003211106   -0.000455100    0.000006250
     46        1          -0.003216882    0.000445628   -0.000005427
     47        1           0.003213890   -0.000455778    0.000006000
     48        1          -0.003219716    0.000436784   -0.000004922
     49        1           0.003215985   -0.000452599    0.000005514
     50        1          -0.003221650    0.000426198   -0.000004514
     51        1           0.003216919   -0.000445619    0.000004808
     52        1          -0.003222097    0.000413403   -0.000004375
     53        1           0.003216249   -0.000434870    0.000003902
     54        1          -0.003220626    0.000398698   -0.000004791
     55        1           0.003213862   -0.000420909    0.000002949
     56        1          -0.003217234    0.000382529   -0.000005942
     57        1           0.003210125   -0.000404847    0.000002227
     58        1          -0.003212427    0.000365393   -0.000007770
     59        1           0.003205802   -0.000388688    0.000002138
     60        1          -0.003207072    0.000347916   -0.000009851
     61        1           0.003202013   -0.000375074    0.000003067
     62        1          -0.003202440    0.000329512   -0.000011484
     63        1           0.003200618   -0.000368337    0.000005262
     64        1          -0.003200734    0.000304821   -0.000011717
     65        1           0.003193776   -0.000376363    0.000008829
     66        1          -0.003191823    0.000281093   -0.000010892
     67        1           0.003415996   -0.000450667    0.000015613
     68        1          -0.005343829   -0.000429985    0.000036302
     69        1           0.002407555   -0.000398988    0.000016676
     70        1           0.002606060    0.003626309   -0.000221970
 -------------------------------------------------------------------
 Cartesian Forces:  Max     0.029783723 RMS     0.014621216

 GradGradGradGradGradGradGradGradGradGradGradGradGradGradGradGradGradGrad
 Berny optimization.
 FormGI is forming the generalized inverse of G from B-inverse, IUseBI=4.
 Internal  Forces:  Max     0.022321130 RMS     0.008363846
 Search for a local minimum.
 Step number   1 out of a maximum of  313
 All quantities printed in internal units (Hartrees-Bohrs-Radians)
 Mixed Optimization -- RFO/linear search
 Second derivative matrix not updated -- first step.
 ITU=  0
     Eigenvalues ---    0.01059   0.01059   0.01059   0.01060   0.01060
     Eigenvalues ---    0.01060   0.01060   0.01060   0.01060   0.01060
     Eigenvalues ---    0.01060   0.01061   0.01061   0.01061   0.01066
     Eigenvalues ---    0.01067   0.01978   0.01978   0.01978   0.01978
     Eigenvalues ---    0.01978   0.01979   0.01979   0.01979   0.01979
     Eigenvalues ---    0.01979   0.01979   0.01979   0.01979   0.01979
     Eigenvalues ---    0.01979   0.01979   0.01979   0.01979   0.01979
     Eigenvalues ---    0.01979   0.01979   0.01979   0.01979   0.01979
     Eigenvalues ---    0.01979   0.01979   0.01979   0.01979   0.01983
     Eigenvalues ---    0.01983   0.01999   0.01999   0.02887   0.02887
     Eigenvalues ---    0.02888   0.02888   0.02888   0.02888   0.02888
     Eigenvalues ---    0.02888   0.02889   0.02889   0.02889   0.02889
     Eigenvalues ---    0.02889   0.02889   0.02889   0.02948   0.02948
     Eigenvalues ---    0.02949   0.02949   0.16000   0.16000   0.16000
     Eigenvalues ---    0.16000   0.16000   0.16000   0.16000   0.16000
     Eigenvalues ---    0.16000   0.16000   0.16000   0.16000   0.16000
     Eigenvalues ---    0.16000   0.16000   0.16000   0.16000   0.16000
     Eigenvalues ---    0.16000   0.16000   0.16000   0.16000   0.16000
     Eigenvalues ---    0.16000   0.16000   0.16000   0.16000   0.16000
     Eigenvalues ---    0.16000   0.16000   0.16000   0.16000   0.16000
     Eigenvalues ---    0.16000   0.16000   0.16000   0.22000   0.22000
     Eigenvalues ---    0.22000   0.22000   0.22000   0.22000   0.22000
     Eigenvalues ---    0.22000   0.22000   0.22000   0.22000   0.22000
     Eigenvalues ---    0.22000   0.22000   0.22000   0.22000   0.22000
     Eigenvalues ---    0.22000   0.22000   0.22000   0.22000   0.22000
     Eigenvalues ---    0.22000   0.22000   0.22000   0.22000   0.22000
     Eigenvalues ---    0.22000   0.22000   0.22000   0.22000   0.22000
     Eigenvalues ---    0.34820   0.34821   0.34821   0.34822   0.34822
     Eigenvalues ---    0.34823   0.34823   0.34823   0.34824   0.34827
     Eigenvalues ---    0.34830   0.34833   0.34833   0.34834   0.34881
     Eigenvalues ---    0.34888   0.35075   0.35075   0.35075   0.35075
     Eigenvalues ---    0.35076   0.35076   0.35076   0.35077   0.35077
     Eigenvalues ---    0.35077   0.35078   0.35078   0.35079   0.35079
     Eigenvalues ---    0.35079   0.35080   0.35081   0.35082   0.35082
     Eigenvalues ---    0.35082   0.35083   0.35084   0.35084   0.35084
     Eigenvalues ---    0.35085   0.35085   0.35085   0.35085   0.35086
     Eigenvalues ---    0.35086   0.35191   0.35194   0.35269   0.35272
     Eigenvalues ---    0.35371   0.35373   0.57286   0.57289   0.57294
     Eigenvalues ---    0.57297   0.57299   0.57302   0.57305   0.57306
     Eigenvalues ---    0.57309   0.57310   0.57310   0.57311   0.57313
     Eigenvalues ---    0.57313   0.57314   0.58335   0.58342
 RFO step:  Lambda=-5.64774384D-02 EMin= 1.05934305D-02
 Linear search not attempted -- first point.
 Maximum step size (   0.300) exceeded in Quadratic search.
    -- Step size scaled by   0.729
 Iteration  1 RMS(Cart)=  0.09351033 RMS(Int)=  0.00028951
 Iteration  2 RMS(Cart)=  0.00144409 RMS(Int)=  0.00000018
 Iteration  3 RMS(Cart)=  0.00000020 RMS(Int)=  0.00000018
 Variable       Old X    -DE/DX   Delta X   Delta X   Delta X     New X
                                 (Linear)    (Quad)   (Total)
    R1        2.52277   0.01191   0.00000   0.01357   0.01357   2.53633
    R2        2.05076   0.00017   0.00000   0.00031   0.00031   2.05107
    R3        2.05236  -0.00019   0.00000  -0.00035  -0.00035   2.05201
    R4        2.79169  -0.01415   0.00000  -0.02546  -0.02546   2.76623
    R5        2.05366   0.00063   0.00000   0.00112   0.00112   2.05478
    R6        2.53135   0.01879   0.00000   0.02176   0.02176   2.55311
    R7        2.05547  -0.00026   0.00000  -0.00047  -0.00047   2.05500
    R8        2.79263  -0.01789   0.00000  -0.03223  -0.03223   2.76041
    R9        2.05547  -0.00013   0.00000  -0.00023  -0.00023   2.05524
   R10        2.53141   0.02104   0.00000   0.02437   0.02437   2.55578
   R11        2.05543  -0.00020   0.00000  -0.00035  -0.00035   2.05508
   R12        2.79263  -0.01889   0.00000  -0.03404  -0.03404   2.75859
   R13        2.05546  -0.00015   0.00000  -0.00026  -0.00026   2.05519
   R14        2.53138   0.02181   0.00000   0.02526   0.02526   2.55664
   R15        2.05542  -0.00018   0.00000  -0.00032  -0.00032   2.05511
   R16        2.79263  -0.01923   0.00000  -0.03465  -0.03465   2.75798
   R17        2.05547  -0.00016   0.00000  -0.00029  -0.00029   2.05517
   R18        2.53136   0.02211   0.00000   0.02560   0.02560   2.55696
   R19        2.05542  -0.00017   0.00000  -0.00030  -0.00030   2.05512
   R20        2.79265  -0.01937   0.00000  -0.03490  -0.03490   2.75775
   R21        2.05548  -0.00017   0.00000  -0.00031  -0.00031   2.05517
   R22        2.53134   0.02224   0.00000   0.02575   0.02575   2.55709
   R23        2.05541  -0.00016   0.00000  -0.00029  -0.00029   2.05511
   R24        2.79267  -0.01943   0.00000  -0.03501  -0.03501   2.75766
   R25        2.05549  -0.00018   0.00000  -0.00032  -0.00032   2.05518
   R26        2.53132   0.02230   0.00000   0.02582   0.02582   2.55714
   R27        2.05539  -0.00016   0.00000  -0.00029  -0.00029   2.05511
   R28        2.79268  -0.01946   0.00000  -0.03506  -0.03506   2.75762
   R29        2.05551  -0.00018   0.00000  -0.00032  -0.00032   2.05519
   R30        2.53132   0.02232   0.00000   0.02585   0.02585   2.55716
   R31        2.05538  -0.00016   0.00000  -0.00028  -0.00028   2.05510
   R32        2.79267  -0.01947   0.00000  -0.03507  -0.03507   2.75760
   R33        2.05552  -0.00018   0.00000  -0.00033  -0.00033   2.05520
   R34        2.53133   0.02232   0.00000   0.02585   0.02585   2.55717
   R35        2.05537  -0.00016   0.00000  -0.00028  -0.00028   2.05509
   R36        2.79265  -0.01946   0.00000  -0.03506  -0.03506   2.75759
   R37        2.05553  -0.00018   0.00000  -0.00033  -0.00033   2.05520
   R38        2.53135   0.02230   0.00000   0.02583   0.02583   2.55718
   R39        2.05536  -0.00016   0.00000  -0.00028  -0.00028   2.05509
   R40        2.79261  -0.01945   0.00000  -0.03503  -0.03503   2.75758
   R41        2.05554  -0.00018   0.00000  -0.00033  -0.00033   2.05521
   R42        2.53139   0.02226   0.00000   0.02578   0.02578   2.55717
   R43        2.05536  -0.00016   0.00000  -0.00028  -0.00028   2.05508
   R44        2.79256  -0.01941   0.00000  -0.03497  -0.03497   2.75759
   R45        2.05554  -0.00018   0.00000  -0.00033  -0.00033   2.05521
   R46        2.53144   0.02219   0.00000   0.02570   0.02570   2.55714
   R47        2.05536  -0.00016   0.00000  -0.00028  -0.00028   2.05508
   R48        2.79251  -0.01935   0.00000  -0.03485  -0.03485   2.75766
   R49        2.05553  -0.00019   0.00000  -0.00033  -0.00033   2.05520
   R50        2.53149   0.02204   0.00000   0.02554   0.02554   2.55702
   R51        2.05537  -0.00015   0.00000  -0.00028  -0.00028   2.05509
   R52        2.79247  -0.01921   0.00000  -0.03459  -0.03459   2.75787
   R53        2.05552  -0.00019   0.00000  -0.00033  -0.00033   2.05518
   R54        2.53153   0.02174   0.00000   0.02518   0.02518   2.55671
   R55        2.05538  -0.00015   0.00000  -0.00027  -0.00027   2.05511
   R56        2.79245  -0.01886   0.00000  -0.03397  -0.03397   2.75848
   R57        2.05550  -0.00019   0.00000  -0.00034  -0.00034   2.05516
   R58        2.53155   0.02096   0.00000   0.02429   0.02429   2.55584
   R59        2.05539  -0.00013   0.00000  -0.00024  -0.00024   2.05515
   R60        2.79247  -0.01786   0.00000  -0.03217  -0.03217   2.76031
   R61        2.05549  -0.00021   0.00000  -0.00038  -0.00038   2.05512
   R62        2.53146   0.01873   0.00000   0.02170   0.02170   2.55315
   R63        2.05542  -0.00012   0.00000  -0.00021  -0.00021   2.05521
   R64        2.79158  -0.01413   0.00000  -0.02541  -0.02541   2.76617
   R65        2.05552  -0.00028   0.00000  -0.00049  -0.00049   2.05503
   R66        2.52282   0.01187   0.00000   0.01353   0.01353   2.53635
   R67        2.05361   0.00064   0.00000   0.00115   0.00115   2.05476
   R68        2.05240  -0.00021   0.00000  -0.00038  -0.00038   2.05203
   R69        2.05074   0.00018   0.00000   0.00032   0.00032   2.05106
    A1        2.09385   0.00445   0.00000   0.01500   0.01500   2.10885
    A2        2.11473   0.00027   0.00000   0.00092   0.00092   2.11566
    A3        2.07460  -0.00473   0.00000  -0.01592  -0.01592   2.05868
    A4        2.11398   0.01185   0.00000   0.03126   0.03126   2.14524
    A5        2.07623  -0.00045   0.00000   0.00282   0.00282   2.07905
    A6        2.09297  -0.01140   0.00000  -0.03408  -0.03408   2.05890
    A7        2.11045   0.01217   0.00000   0.03209   0.03209   2.14255
    A8        2.08146  -0.00963   0.00000  -0.02799  -0.02799   2.05347
    A9        2.09127  -0.00254   0.00000  -0.00410  -0.00410   2.08717
   A10        2.11091   0.01272   0.00000   0.03353   0.03353   2.14444
   A11        2.09041  -0.00305   0.00000  -0.00562  -0.00562   2.08478
   A12        2.08187  -0.00967   0.00000  -0.02791  -0.02791   2.05396
   A13        2.11077   0.01244   0.00000   0.03280   0.03280   2.14357
   A14        2.08180  -0.00954   0.00000  -0.02758  -0.02758   2.05422
   A15        2.09061  -0.00290   0.00000  -0.00522  -0.00522   2.08540
   A16        2.11097   0.01264   0.00000   0.03334   0.03334   2.14431
   A17        2.09052  -0.00300   0.00000  -0.00548  -0.00548   2.08504
   A18        2.08169  -0.00964   0.00000  -0.02786  -0.02786   2.05383
   A19        2.11064   0.01257   0.00000   0.03315   0.03315   2.14378
   A20        2.08189  -0.00961   0.00000  -0.02779  -0.02779   2.05411
   A21        2.09066  -0.00295   0.00000  -0.00536  -0.00536   2.08530
   A22        2.11112   0.01261   0.00000   0.03326   0.03326   2.14438
   A23        2.09045  -0.00298   0.00000  -0.00543  -0.00543   2.08502
   A24        2.08161  -0.00963   0.00000  -0.02783  -0.02783   2.05378
   A25        2.11043   0.01264   0.00000   0.03333   0.03333   2.14376
   A26        2.08202  -0.00965   0.00000  -0.02789  -0.02789   2.05413
   A27        2.09073  -0.00299   0.00000  -0.00545  -0.00545   2.08529
   A28        2.11137   0.01257   0.00000   0.03316   0.03316   2.14452
   A29        2.09034  -0.00296   0.00000  -0.00537  -0.00537   2.08497
   A30        2.08148  -0.00962   0.00000  -0.02779  -0.02779   2.05369
   A31        2.11014   0.01270   0.00000   0.03349   0.03349   2.14363
   A32        2.08220  -0.00968   0.00000  -0.02797  -0.02797   2.05422
   A33        2.09085  -0.00302   0.00000  -0.00552  -0.00552   2.08533
   A34        2.11170   0.01253   0.00000   0.03303   0.03303   2.14473
   A35        2.09019  -0.00293   0.00000  -0.00530  -0.00530   2.08489
   A36        2.08130  -0.00959   0.00000  -0.02774  -0.02774   2.05357
   A37        2.10977   0.01277   0.00000   0.03366   0.03366   2.14343
   A38        2.08242  -0.00972   0.00000  -0.02807  -0.02807   2.05435
   A39        2.09100  -0.00305   0.00000  -0.00560  -0.00560   2.08540
   A40        2.11210   0.01247   0.00000   0.03287   0.03287   2.14497
   A41        2.09001  -0.00290   0.00000  -0.00521  -0.00521   2.08480
   A42        2.08108  -0.00957   0.00000  -0.02766  -0.02766   2.05342
   A43        2.10934   0.01283   0.00000   0.03384   0.03384   2.14318
   A44        2.08266  -0.00975   0.00000  -0.02816  -0.02816   2.05451
   A45        2.09118  -0.00308   0.00000  -0.00569  -0.00569   2.08550
   A46        2.11254   0.01240   0.00000   0.03270   0.03270   2.14524
   A47        2.08982  -0.00287   0.00000  -0.00513  -0.00513   2.08469
   A48        2.08083  -0.00953   0.00000  -0.02757  -0.02757   2.05325
   A49        2.10891   0.01290   0.00000   0.03402   0.03402   2.14292
   A50        2.08290  -0.00978   0.00000  -0.02824  -0.02824   2.05466
   A51        2.09137  -0.00311   0.00000  -0.00578  -0.00578   2.08560
   A52        2.11295   0.01234   0.00000   0.03253   0.03253   2.14548
   A53        2.08965  -0.00284   0.00000  -0.00505  -0.00505   2.08460
   A54        2.08058  -0.00950   0.00000  -0.02748  -0.02748   2.05310
   A55        2.10855   0.01295   0.00000   0.03416   0.03416   2.14270
   A56        2.08309  -0.00981   0.00000  -0.02830  -0.02830   2.05479
   A57        2.09155  -0.00315   0.00000  -0.00586  -0.00586   2.08569
   A58        2.11326   0.01229   0.00000   0.03240   0.03240   2.14565
   A59        2.08954  -0.00282   0.00000  -0.00500  -0.00500   2.08454
   A60        2.08039  -0.00947   0.00000  -0.02740  -0.02740   2.05299
   A61        2.10833   0.01299   0.00000   0.03425   0.03425   2.14257
   A62        2.08320  -0.00982   0.00000  -0.02832  -0.02832   2.05487
   A63        2.09166  -0.00317   0.00000  -0.00592  -0.00592   2.08574
   A64        2.11339   0.01226   0.00000   0.03232   0.03232   2.14571
   A65        2.08951  -0.00281   0.00000  -0.00498  -0.00498   2.08453
   A66        2.08029  -0.00945   0.00000  -0.02734  -0.02734   2.05294
   A67        2.10831   0.01299   0.00000   0.03425   0.03425   2.14256
   A68        2.08318  -0.00981   0.00000  -0.02830  -0.02830   2.05487
   A69        2.09170  -0.00318   0.00000  -0.00595  -0.00595   2.08575
   A70        2.11330   0.01225   0.00000   0.03232   0.03232   2.14561
   A71        2.08958  -0.00281   0.00000  -0.00500  -0.00500   2.08458
   A72        2.08031  -0.00944   0.00000  -0.02732  -0.02732   2.05299
   A73        2.10853   0.01296   0.00000   0.03417   0.03417   2.14270
   A74        2.08303  -0.00979   0.00000  -0.02824  -0.02824   2.05479
   A75        2.09163  -0.00317   0.00000  -0.00593  -0.00593   2.08570
[...]
 6628,-0.32163095,0.01699270,0.00002509,-0.00980613,0.00090157,0.000001
 24,-0.00000008,0.00000002,-0.00000028,0.00000012,0.00000002,-0.0000001
 7,-0.00000165,0.00000013,-0.00000005,-0.00000020,0.00000003,0.,-0.0000
 0179,0.00000013,-0.00000005,-0.00000037,0.00000004,0.00000003,-0.00000
 196,0.00000013,-0.00000004,-0.00000044,0.00000003,0.00000007,-0.000002
 16,0.00000012,-0.00000004,-0.00000051,0.00000002,0.00000008,-0.0000024
 6,0.00000014,-0.00000004,-0.00000066,0.00000003,0.00000012,-0.00000285
 ,0.00000016,-0.00000005,-0.00000058,0.00000003,0.00000012,-0.00000331,
 0.00000019,-0.00000009,-0.00000102,0.00000006,0.00000019,-0.00000385,0
 .00000023,-0.00000010,-0.00000125,0.00000007,0.00000025,-0.00000455,0.
 00000028,-0.00000010,-0.00000149,0.00000010,0.00000034,-0.00000542,0.0
 0000033,-0.00000008,-0.00000176,0.00000012,0.00000046,-0.00000654,0.00
 000041,0.00000004,-0.00000197,0.00000016,0.00000060,-0.00000797,0.0000
 0053,0.00000051,-0.00000191,0.00000019,0.00000054,-0.00000965,0.000000
 64,0.00000260,-0.00000064,0.00000027,-0.00000194,-0.00001173,0.0000010
 5,0.00003847,0.00000485,0.00000014,-0.00025461,0.00009858,0.00000207,0
 .00103938,0.00068110,-0.00003381,0.00259358,-0.00058593,0.00024028,0.0
 3406074,0.34459137,-0.00000042,0.00000023,-0.00000035,0.00000015,-0.00
 000062,-0.00000007,-0.00000007,0.00000046,-0.00000011,0.00000009,-0.00
 000060,-0.00000007,-0.00000011,0.00000051,-0.00000015,0.00000006,-0.00
 000066,-0.00000010,-0.00000008,0.00000053,-0.00000008,0.00000004,-0.00
 000072,0.,-0.00000008,0.00000060,-0.00000002,0.00000004,-0.00000078,0.
 00000002,-0.00000008,0.00000062,-0.00000006,0.00000004,-0.00000086,0.,
 -0.00000008,0.00000071,-0.00000010,-0.00000004,-0.00000105,-0.00000003
 ,-0.00000003,0.00000081,-0.00000015,-0.00000002,-0.00000121,-0.0000000
 4,-0.00000006,0.00000092,-0.00000021,-0.00000009,-0.00000139,-0.000000
 11,0.,0.00000108,-0.00000035,-0.00000015,-0.00000157,-0.00000019,0.000
 00005,0.00000130,-0.00000052,-0.00000034,-0.00000193,-0.00000051,0.000
 00015,0.00000160,-0.00000111,-0.00000058,-0.00000235,-0.00000025,0.000
 00053,0.00000223,-0.00000078,-0.00000147,-0.00000329,-0.00000415,0.000
 00130,0.00000289,-0.00001151,-0.00000300,-0.00000343,0.00001560,0.0000
 0096,0.00000443,-0.00002127,-0.00002624,-0.00004471,-0.00019881,0.0000
 8937,-0.00015876,-0.00163978,0.00020567,0.00103218,0.00295582,0.001969
 61,0.01698465,-0.04274944,0.00003559,0.00108910,0.00514272,-0.00000007
 ,0.,0.00000013,0.00000002,0.00000002,0.00000015,0.00000002,0.00000017,
 0.00000012,0.,0.00000004,0.00000012,0.,0.00000008,0.00000010,0.,0.0000
 0004,0.00000012,0.,0.00000012,0.00000011,0.,0.00000004,0.00000007,0.,0
 .00000013,0.00000001,0.,0.00000002,0.,0.,0.00000015,0.,0.,0.00000004,0
 .00000002,-0.00000001,0.00000017,0.00000003,0.,0.00000004,0.00000006,0
 .,0.00000026,0.00000006,0.,0.00000006,0.00000011,0.,0.00000029,0.00000
 009,0.,0.00000010,0.00000016,0.,0.00000031,0.00000017,0.,0.00000012,0.
 00000027,-0.00000002,0.00000034,0.00000029,0.00000001,0.00000014,0.000
 00044,-0.00000003,0.00000043,0.00000050,0.,0.00000017,0.00000086,-0.00
 000003,0.00000054,0.00000092,-0.00000002,0.00000023,0.00000154,-0.0000
 0003,0.00000069,0.00000117,-0.00000010,0.00000031,0.00000417,0.0000001
 0,0.00000105,0.00000538,-0.00000195,0.00000047,0.00001068,0.00001566,0
 .00000200,0.00010765,-0.00005943,-0.00002242,0.00022133,-0.00011116,0.
 00024135,0.00365444,-0.00226320,-0.01925601,0.02847555,0.00000105,-0.0
 0000068,0.00000002,-0.00000038,0.00000157,-0.00000010,0.00000032,-0.00
 000132,0.00000007,-0.00000017,0.00000166,-0.00000010,0.00000023,-0.000
 00130,0.00000007,-0.00000010,0.00000171,-0.00000011,0.00000018,-0.0000
 0135,0.00000008,-0.00000021,0.00000189,-0.00000011,0.00000032,-0.00000
 149,0.00000009,-0.00000022,0.00000203,-0.00000012,0.00000037,-0.000001
 56,0.00000010,-0.00000030,0.00000221,-0.00000013,0.00000044,-0.0000017
 3,0.00000010,-0.00000035,0.00000244,-0.00000014,0.00000057,-0.00000181
 ,0.00000011,-0.00000050,0.00000272,-0.00000016,0.00000077,-0.00000198,
 0.00000012,-0.00000072,0.00000305,-0.00000018,0.00000109,-0.00000218,0
 .00000013,-0.00000110,0.00000343,-0.00000020,0.00000159,-0.00000241,0.
 00000014,-0.00000170,0.00000386,-0.00000022,0.00000240,-0.00000264,0.0
 0000014,-0.00000268,0.00000423,-0.00000027,0.00000368,-0.00000287,0.00
 000015,-0.00000384,0.00000443,-0.00000010,0.00000598,-0.00000264,0.000
 00007,-0.00000487,0.00000240,-0.00000073,0.00002599,0.00000087,0.00000
 001,0.00003576,0.00007549,-0.00000287,-0.00013547,0.00020230,-0.000011
 78,0.00178728,-0.00182696,0.00005596,0.00004366,-0.03081047,0.00187780
 ,-0.06519278,-0.03872544,0.00251393,0.00000014,0.,0.,-0.00000004,0.,0.
 ,-0.00000003,-0.00000028,0.00000002,-0.00000001,-0.00000004,0.,-0.0000
 0001,-0.00000032,0.00000002,-0.00000001,-0.00000007,0.,0.,-0.00000035,
 0.00000002,-0.00000002,-0.00000008,0.,0.,-0.00000036,0.00000002,-0.000
 00002,-0.00000012,0.,0.,-0.00000039,0.00000002,-0.00000001,-0.00000013
 ,0.,0.00000001,-0.00000046,0.00000003,-0.00000001,-0.00000010,0.,0.,-0
 .00000052,0.00000003,-0.00000002,-0.00000020,0.,0.00000001,-0.00000059
 ,0.00000003,-0.00000002,-0.00000024,0.00000001,0.00000001,-0.00000068,
 0.00000004,-0.00000002,-0.00000028,0.00000002,0.,-0.00000076,0.0000000
 4,0.,-0.00000033,0.00000002,-0.00000002,-0.00000084,0.00000005,0.00000
 005,-0.00000035,0.00000002,-0.00000010,-0.00000087,0.00000006,0.000000
 17,-0.00000025,0.00000003,-0.00000039,-0.00000062,0.00000005,0.0000012
 8,0.00000033,-0.00000008,-0.00000320,0.00000088,0.,0.00001031,0.000003
 07,-0.00000015,-0.00005039,0.00003315,-0.00000167,0.00012914,0.0002354
 2,-0.00001290,-0.00023306,0.00094622,-0.00005374,-0.00464126,-0.001645
 33,0.00019057,0.06176362,-0.00000033,0.00000037,-0.00000009,0.00000029
 ,-0.00000081,0.00000002,-0.00000015,0.00000068,-0.00000006,0.00000014,
 -0.00000082,0.00000003,-0.00000027,0.00000070,-0.00000006,0.00000042,-
 0.00000099,0.00000003,-0.00000069,0.00000074,-0.00000004,0.00000041,-0
 .00000094,0.00000005,-0.00000061,0.00000066,-0.00000002,0.00000070,-0.
 00000110,0.00000006,-0.00000090,0.00000069,-0.00000003,0.00000091,-0.0
 0000128,0.00000008,-0.00000141,0.00000050,-0.00000002,0.00000162,-0.00
 000152,0.00000008,-0.00000218,0.00000080,-0.00000003,0.00000254,-0.000
 00180,0.00000009,-0.00000347,0.00000087,-0.00000003,0.00000412,-0.0000
 0225,0.00000011,-0.00000556,0.00000092,-0.00000003,0.00000675,-0.00000
 290,0.00000011,-0.00000916,0.00000091,0.,0.00001134,-0.00000392,0.0000
 0020,-0.00001563,0.00000072,0.,0.00001983,-0.00000572,-0.00000012,-0.0
 0002824,0.00000011,0.00000014,0.00003692,-0.00000919,0.00000176,-0.000
 05753,-0.00000126,-0.00000014,0.00007388,-0.00002224,-0.00000536,-0.00
 013094,-0.00000312,0.00000321,0.00011946,-0.00005684,0.00002194,-0.000
 35025,0.00042875,-0.00002799,0.00221878,0.00097710,-0.00051379,-0.0006
 7734,-0.00996542,0.00088474,-0.04216750,-0.33084530,0.01812512,-0.0000
 0026,0.00000005,0.00000003,0.,-0.00000005,0.00000003,-0.00000002,0.000
 00013,0.00000002,-0.00000002,-0.00000001,0.00000003,0.,0.00000014,0.00
 000002,0.,0.,0.00000002,0.00000002,0.00000015,0.,0.00000004,0.00000005
 ,0.,0.00000004,0.00000020,-0.00000002,0.00000004,0.00000006,-0.0000000
 1,0.00000002,0.00000027,-0.00000002,0.00000005,0.00000014,-0.00000002,
 0.00000003,0.00000029,-0.00000002,0.00000008,0.00000045,-0.00000003,-0
 .00000001,0.00000035,-0.00000002,0.00000005,0.00000022,-0.00000001,0.,
 0.00000043,-0.00000003,0.00000008,0.00000028,-0.00000002,0.,0.00000054
 ,-0.00000003,0.00000010,0.00000038,-0.00000002,-0.00000002,0.00000069,
 -0.00000003,0.00000015,0.00000055,-0.00000001,-0.00000006,0.00000094,-
 0.00000003,0.00000027,0.00000082,-0.00000003,-0.00000014,0.00000137,-0
 .00000002,0.00000057,0.00000137,0.00000006,-0.00000035,0.00000222,-0.0
 0000003,0.00000159,0.00000255,-0.00000071,-0.00000097,0.00000466,-0.00
 000001,0.00000502,0.00000413,0.00000069,-0.00001504,0.00000801,-0.0000
 0018,0.00022138,-0.00001292,0.00001981,-0.00097510,0.00054508,-0.00000
 951,-0.00194292,0.00085069,0.00061911,0.04869888,0.35011955,-0.0000000
 4,-0.00000005,-0.00000036,0.,0.,-0.00000012,0.00000004,-0.00000007,-0.
 00000009,0.00000002,0.00000005,-0.00000012,-0.00000001,-0.00000004,-0.
 00000012,-0.00000003,0.00000005,-0.00000015,0.00000005,-0.00000005,-0.
 00000005,-0.00000003,0.00000004,-0.00000005,0.00000003,-0.00000001,0.,
 -0.00000004,0.00000006,-0.00000003,0.00000004,-0.00000005,-0.00000003,
 -0.00000003,0.00000008,-0.00000005,0.00000006,-0.00000003,-0.00000007,
 -0.00000011,0.00000003,-0.00000010,0.00000014,-0.00000003,-0.00000011,
 -0.00000013,0.00000002,-0.00000014,0.00000019,-0.00000005,-0.00000016,
 -0.00000025,0.00000006,-0.00000015,0.00000033,-0.00000005,-0.00000030,
 -0.00000039,0.00000012,-0.00000058,0.00000054,-0.00000006,-0.00000036,
 -0.00000069,0.00000024,0.00000050,0.00000088,-0.00000011,-0.00000102,-
 0.00000117,-0.00000002,-0.00000599,0.00000168,-0.00000001,-0.00000035,
 -0.00000211,0.00000194,0.00002344,0.00000339,-0.00000049,-0.00000907,-
 0.00000501,-0.00000495,-0.00010404,0.00000793,0.00000244,0.00003758,-0
 .00000550,0.00002223,0.00031915,0.00002142,-0.00003124,-0.00006970,-0.
 00018700,-0.00048999,-0.00732973,0.00006804,0.00106187,0.00463571,0.00
 272063,0.01810492,-0.03428408,0.00000002,0.,0.00000014,0.,0.00000003,0
 .00000015,0.,0.00000006,0.00000014,0.,0.00000002,0.00000013,0.,-0.0000
 0003,0.00000012,0.,0.00000002,0.00000013,0.,0.,0.00000012,0.,0.0000000
 1,0.00000008,0.,-0.00000001,0.00000003,0.,-0.00000002,0.,0.,-0.0000000
 1,0.00000002,0.,-0.00000001,0.00000003,0.,-0.00000002,0.00000005,0.,-0
 .00000002,0.00000007,0.,0.00000004,0.00000009,0.,-0.00000001,0.0000001
 1,0.,0.00000003,0.00000012,0.,0.,0.00000017,0.,0.,0.00000021,-0.000000
 01,0.,0.00000025,0.,-0.00000002,0.00000035,0.,0.,0.00000049,0.,-0.0000
 0002,0.00000058,-0.00000001,-0.00000002,0.00000049,0.00000002,0.,0.000
 00112,-0.00000002,0.00000008,0.00000253,0.00000003,0.00000001,0.000001
 89,-0.00000015,-0.00000069,-0.00000898,0.00000010,-0.00000004,0.000004
 23,-0.00000027,0.00000070,0.00001597,0.00000122,-0.00000047,0.00000326
 ,-0.00001207,0.00001971,0.00033724,0.00006165,-0.00002083,0.00029191,0
 .00020844,0.00061736,0.01093041,-0.00316009,-0.02000895,0.02294845,-0.
 00000527,0.00000337,-0.00000022,0.00000267,-0.00000794,0.00000045,-0.0
 0000229,0.00000714,-0.00000043,0.00000100,-0.00000838,0.00000048,-0.00
 000103,0.00000688,-0.00000042,0.00000035,-0.00000896,0.00000051,-0.000
 00092,0.00000716,-0.00000042,0.00000017,-0.00000964,0.00000058,-0.0000
 0085,0.00000761,-0.00000044,0.00000046,-0.00001068,0.00000064,-0.00000
 123,0.00000827,-0.00000048,0.00000059,-0.00001193,0.00000072,-0.000001
 59,0.00000906,-0.00000054,0.00000079,-0.00001346,0.00000081,-0.0000019
 0,0.00001028,-0.00000060,0.00000089,-0.00001534,0.00000093,-0.00000231
 ,0.00001172,-0.00000068,0.00000110,-0.00001776,0.00000106,-0.00000295,
 0.00001360,-0.00000079,0.00000150,-0.00002086,0.00000126,-0.00000403,0
 .00001608,-0.00000094,0.00000226,-0.00002498,0.00000147,-0.00000600,0.
 00001950,-0.00000111,0.00000360,-0.00003074,0.00000191,-0.00001004,0.0
 0002497,-0.00000146,0.00000431,-0.00004073,0.00000203,-0.00002208,0.00
 003929,-0.00000217,-0.00001140,-0.00007490,0.00000639,-0.00009414,0.00
 013669,-0.00000812,-0.00025261,-0.00036235,0.00001472,-0.00063735,0.00
 132462,-0.00007447,-0.00259453,-0.00423379,0.00033776,-0.01880849,0.02
 019405,-0.00107777,-0.24041150,0.13615640,-0.00694754,-0.00000086,0.00
 000013,0.00000002,0.00000014,-0.00000024,0.00000003,0.00000014,0.00000
 124,-0.00000005,0.00000004,0.00000013,0.00000001,0.00000005,0.00000156
 ,-0.00000008,0.00000008,0.00000030,0.,0.00000003,0.00000176,-0.0000000
 9,0.00000015,0.00000043,-0.00000002,0.,0.00000192,-0.00000012,0.000000
 13,0.00000054,-0.00000004,-0.00000004,0.00000218,-0.00000014,0.0000001
 3,0.00000073,-0.00000005,-0.00000005,0.00000249,-0.00000016,0.00000015
 ,0.00000103,-0.00000007,-0.00000009,0.00000289,-0.00000018,0.00000015,
 0.00000110,-0.00000007,-0.00000011,0.00000337,-0.00000021,0.00000017,0
 .00000133,-0.00000009,-0.00000016,0.00000395,-0.00000024,0.00000020,0.
 00000159,-0.00000010,-0.00000022,0.00000467,-0.00000028,0.00000024,0.0
 0000192,-0.00000012,-0.00000032,0.00000560,-0.00000034,0.00000030,0.00
 000232,-0.00000014,-0.00000045,0.00000686,-0.00000042,0.00000046,0.000
 00281,-0.00000020,-0.00000059,0.00000863,-0.00000051,0.00000088,0.0000
 0300,-0.00000006,0.00000075,0.00001162,-0.00000070,0.00000142,-0.00000
 088,-0.00000038,0.00001594,0.00001732,-0.00000097,0.00000527,-0.000072
 90,0.00000522,0.00013161,0.00012357,-0.00000985,0.00102717,-0.00009539
 ,-0.00004102,0.00645761,-0.00503947,0.00027827,0.25521248,-0.00000012,
 -0.00000011,0.00000003,0.00000010,0.00000020,0.,-0.00000017,-0.0000001
 0,0.00000001,0.00000001,0.00000016,0.,0.00000012,-0.00000008,0.,-0.000
 00034,0.00000015,0.,0.00000058,-0.00000009,0.,-0.00000044,-0.00000002,
 0.,0.00000052,0.,-0.00000001,-0.00000062,-0.00000008,0.,0.00000065,0.0
 0000013,-0.00000002,-0.00000076,-0.00000017,0.,0.00000096,0.00000037,-
 0.00000004,-0.00000126,-0.00000029,0.00000002,0.00000152,0.00000047,-0
 .00000005,-0.00000201,-0.00000047,0.00000003,0.00000246,0.00000074,-0.
 00000008,-0.00000329,-0.00000070,0.00000004,0.00000401,0.00000119,-0.0
 0000011,-0.00000538,-0.00000104,0.00000011,0.00000662,0.00000195,-0.00
 000019,-0.00000900,-0.00000163,-0.00000006,0.00001123,0.00000336,-0.00
 000026,-0.00001564,-0.00000264,0.00000102,0.00001975,0.00000647,-0.000
 00078,-0.00002933,-0.00000554,-0.00000353,0.00003679,0.00001588,-0.000
 00062,-0.00006780,-0.00001878,0.00002000,0.00006227,0.00006638,-0.0000
 0881,-0.00028230,-0.00013180,-0.00007741,-0.00018130,0.00080562,-0.000
 03349,-0.00211776,-0.00094465,0.00076657,-0.01272361,0.01070756,-0.000
 31761,0.14066496,-0.16277808,0.00707854,0.00000013,-0.00000005,0.,0.,0
 .00000004,0.,0.00000003,-0.00000008,0.,0.00000002,0.00000005,-0.000000
 01,-0.00000001,-0.00000004,0.,0.,0.00000005,0.,-0.00000004,0.,0.,-0.00
 000003,0.00000003,0.,-0.00000006,0.00000004,0.,-0.00000002,0.00000004,
 0.,-0.00000004,0.00000005,0.,-0.00000002,0.,0.00000001,-0.00000005,0.0
 0000007,0.,-0.00000002,-0.00000010,0.00000002,-0.00000004,0.00000010,0
 .,0.,0.00000002,0.00000001,-0.00000006,0.00000014,0.,0.,0.00000003,0.0
 0000001,-0.00000009,0.00000021,0.,0.,0.00000003,0.00000002,-0.00000013
 ,0.00000031,0.,0.00000003,0.00000003,0.00000001,-0.00000021,0.00000047
 ,0.,0.00000007,0.00000005,0.00000008,-0.00000038,0.00000080,0.,0.00000
 019,0.00000009,-0.00000014,-0.00000094,0.00000162,0.00000002,0.0000006
 3,0.00000037,0.00000134,-0.00000172,0.00000349,-0.00000016,0.00000014,
 -0.00000163,-0.00000437,-0.00000652,0.00001065,0.00000091,0.00008516,-
 0.00000843,0.00000872,-0.00037812,0.00039478,-0.00003857,0.00023389,0.
 00122957,-0.00049150,0.02280915,-0.01202089,0.00072625,-0.14811236,0.1
 6266377,-0.00000002,-0.00000004,-0.00000034,0.,0.,-0.00000011,0.000000
 05,-0.00000007,-0.00000008,0.00000003,0.00000005,-0.00000011,-0.000000
 03,-0.00000003,-0.00000011,0.00000001,0.00000004,-0.00000014,-0.000000
 02,-0.00000005,-0.00000004,0.00000001,0.00000005,-0.00000004,-0.000000
 02,-0.00000003,0.00000002,0.00000004,0.00000007,-0.00000003,-0.0000000
 5,-0.00000007,-0.00000002,0.00000006,0.00000010,-0.00000004,-0.0000000
 7,-0.00000008,-0.00000004,0.00000005,0.00000004,-0.00000009,-0.0000000
 6,-0.00000008,-0.00000008,0.00000013,0.00000005,-0.00000006,-0.0000001
 5,-0.00000012,-0.00000013,0.00000018,0.00000008,-0.00000032,-0.0000002
 2,-0.00000015,-0.00000016,0.00000033,0.00000022,0.00000044,-0.00000038
 ,-0.00000024,-0.00000047,0.00000048,0.00000003,-0.00000350,-0.00000067
 ,-0.00000032,0.00000029,0.00000104,0.00000113,0.00001284,-0.00000114,-
 0.00000080,-0.00000436,0.00000129,-0.00000346,-0.00006691,-0.00000201,
 -0.00000067,0.00000923,0.00000596,0.00002004,0.00030636,-0.00000363,-0
 .00000928,-0.00007389,0.00000993,-0.00007694,-0.00144393,0.00001601,-0
 .00004237,0.00023254,0.00021069,0.00077901,0.01156362,0.00089924,-0.00
 051111,0.00419930,-0.00721831,0.00710500,-0.03153711,0.,0.,0.00000013,
 0.,0.00000002,0.00000014,0.,0.00000006,0.00000013,0.,0.00000002,0.0000
 0012,0.,-0.00000003,0.00000011,0.,0.00000001,0.00000012,0.,0.,0.000000
 11,0.,0.,0.00000007,0.,-0.00000001,0.00000002,0.,-0.00000002,0.,0.,-0.
 00000002,0.00000001,0.,0.,0.00000002,0.,-0.00000002,0.00000004,0.,0.,0
 .00000005,0.00000001,0.00000004,0.00000006,0.,0.,0.00000009,0.,0.00000
 003,0.00000009,0.,0.00000001,0.00000012,0.00000001,0.,0.00000016,0.,0.
 00000001,0.00000024,0.,-0.00000003,0.00000024,0.,0.,0.00000013,0.00000
 002,-0.00000004,0.00000042,0.,0.00000006,0.00000135,0.00000003,-0.0000
 0005,0.00000056,-0.00000002,-0.00000015,-0.00000229,0.00000007,-0.0000
 0001,0.00000176,0.00000010,0.00000134,0.00002264,0.00000010,-0.0000002
 4,0.00000066,-0.00000046,-0.00000435,-0.00007395,0.00000045,0.00000079
 ,0.00002526,-0.00000429,0.00000966,0.00014480,0.00002027,-0.00004151,-
 0.00028176,-0.00006082,-0.00048953,-0.00690112,-0.00139430,0.00088996,
 0.00225860,0.00752005,-0.00762597,0.02160829\\0.00002045,0.00000672,-0
 .00000052,0.00001053,-0.00000679,0.00000035,-0.00002552,0.00000673,-0.
 00000025,0.00002566,-0.00000694,0.00000027,-0.00003390,0.00000711,-0.0
 0000022,0.00002890,-0.00000310,0.00000003,-0.00002741,0.00000482,-0.00
 000012,0.00002090,-0.00000231,0.00000003,-0.00001213,0.00000555,-0.000
 00025,0.00000564,-0.00000291,0.00000016,0.00000503,0.00000638,-0.00000
 039,-0.00001059,-0.00000390,0.00000031,0.00002004,0.00000690,-0.000000
 51,-0.00002402,-0.00000497,0.00000046,0.00003029,0.00000700,-0.0000005
 8,-0.00003236,-0.00000591,0.00000056,0.00003450,0.00000668,-0.00000059
 ,-0.00003447,-0.00000657,0.00000060,0.00003222,0.00000601,-0.00000055,
 -0.00003006,-0.00000688,0.00000058,0.00002374,0.00000508,-0.00000046,-
 0.00001962,-0.00000681,0.00000050,0.00001022,0.00000403,-0.00000033,-0
 .00000451,-0.00000633,0.00000036,-0.00000611,0.00000306,-0.00000020,0.
 00001264,-0.00000555,0.00000020,-0.00002142,0.00000246,-0.00000008,0.0
 0002789,-0.00000485,0.00000008,-0.00002921,0.00000325,-0.00000007,0.00
 003431,-0.00000723,0.00000019,-0.00002603,0.00000708,-0.00000030,0.000
 02554,-0.00000683,0.00000026,-0.00001083,0.00000671,-0.00000039,-0.000
 02025,-0.00000671,0.00000049,-0.00000284,-0.00000331,0.00000022,-0.000
 00672,-0.00000150,0.00000013,-0.00000422,0.00000153,-0.00000007,0.0000
 0592,-0.00000366,0.00000018,-0.00000643,0.00000418,-0.00000022,0.00000
 630,-0.00000416,0.00000021,-0.00000730,0.00000288,-0.00000014,0.000006
 13,-0.00000354,0.00000017,-0.00000591,0.00000247,-0.00000013,0.0000046
 2,-0.00000336,0.00000016,-0.00000404,0.00000234,-0.00000013,0.00000285
 ,-0.00000320,0.00000016,-0.00000229,0.00000227,-0.00000014,0.00000136,
 -0.00000296,0.00000015,-0.00000096,0.00000221,-0.00000015,0.00000036,-
 0.00000269,0.00000014,-0.00000016,0.00000224,-0.00000015,-0.00000005,-
 0.00000249,0.00000014,0.00000003,0.00000237,-0.00000015,0.00000015,-0.
 00000237,0.00000014,-0.00000039,0.00000260,-0.00000015,0.00000095,-0.0
 0000235,0.00000015,-0.00000139,0.00000287,-0.00000014,0.00000229,-0.00
 000239,0.00000017,-0.00000289,0.00000311,-0.00000013,0.00000405,-0.000
 00244,0.00000018,-0.00000464,0.00000330,-0.00000012,0.00000593,-0.0000
 0254,0.00000018,-0.00000614,0.00000350,-0.00000012,0.00000731,-0.00000
 291,0.00000018,-0.00000631,0.00000412,-0.00000016,0.00000646,-0.000004
 14,0.00000023,-0.00000590,0.00000369,-0.00000016,0.00000425,-0.0000015
 0,0.00000009,0.00000669,0.00000157,-0.00000012,0.00000288,0.00000329,-
 0.00000021\\\@



 WE LOSE BECAUSE WE WIN

 GAMBLERS,

 RECOLLECTING WHICH,

 TOSS THEIR DICE AGAIN....


                          EMILY DICKINSON  BOLTS OF MELODY NO. 533
 Job cpu time:       0 days  2 hours 48 minutes 49.2 seconds.
 Elapsed time:       0 days  0 hours 42 minutes 12.7 seconds.
 File lengths (MBytes):  RWF=   3079 Int=      0 D2E=      0 Chk=     53 Scr=      1
 Normal termination of Gaussian 16 at Thu Nov  9 23:39:45 2023.
