 Entering Gaussian System, Link 0=g16
 Input=./com/17.com
 Output=./log/17.log
 Initial command:
 /home/shohei/gaussian/g16/l1.exe "/home/shohei/gaussian/scratch/Gau-26538.inp" -scrdir="/home/shohei/gaussian/scratch/"
 Entering Link 1 = /home/shohei/gaussian/g16/l1.exe PID=     26540.
  
 Copyright (c) 1988-2017, Gaussian, Inc.  All Rights Reserved.
  
 This is part of the Gaussian(R) 16 program.  It is based on
 the Gaussian(R) 09 system (copyright 2009, Gaussian, Inc.),
 the Gaussian(R) 03 system (copyright 2003, Gaussian, Inc.),
 the Gaussian(R) 98 system (copyright 1998, Gaussian, Inc.),
 the Gaussian(R) 94 system (copyright 1995, Gaussian, Inc.),
 the Gaussian 92(TM) system (copyright 1992, Gaussian, Inc.),
 the Gaussian 90(TM) system (copyright 1990, Gaussian, Inc.),
 the Gaussian 88(TM) system (copyright 1988, Gaussian, Inc.),
 the Gaussian 86(TM) system (copyright 1986, Carnegie Mellon
 University), and the Gaussian 82(TM) system (copyright 1983,
 Carnegie Mellon University). Gaussian is a federally registered
 trademark of Gaussian, Inc.
  
 This software contains proprietary and confidential information,
 including trade secrets, belonging to Gaussian, Inc.
  
 This software is provided under written license and may be
 used, copied, transmitted, or stored only in accord with that
 written license.
  
 The following legend is applicable only to US Government
 contracts under FAR:
  
                    RESTRICTED RIGHTS LEGEND
  
 Use, reproduction and disclosure by the US Government is
 subject to restrictions as set forth in subparagraphs (a)
 and (c) of the Commercial Computer Software - Restricted
 Rights clause in FAR 52.227-19.
  
 Gaussian, Inc.
 340 Quinnipiac St., Bldg. 40, Wallingford CT 06492
  
  
 ---------------------------------------------------------------
 Warning -- This program may not be used in any manner that
 competes with the business of Gaussian, Inc. or will provide
 assistance to any competitor of Gaussian, Inc.  The licensee
 of this program is prohibited from giving any competitor of
 Gaussian, Inc. access to this program.  By using this program,
 the user acknowledges that Gaussian, Inc. is engaged in the
 business of creating and licensing software in the field of
 computational chemistry and represents and warrants to the
 licensee that it is not a competitor of Gaussian, Inc. and that
 it will not use this program in any manner prohibited above.
 ---------------------------------------------------------------
  

 Cite this work as:
 Gaussian 16, Revision B.01,
 M. J. Frisch, G. W. Trucks, H. B. Schlegel, G. E. Scuseria, 
 M. A. Robb, J. R. Cheeseman, G. Scalmani, V. Barone, 
 G. A. Petersson, H. Nakatsuji, X. Li, M. Caricato, A. V. Marenich, 
 J. Bloino, B. G. Janesko, R. Gomperts, B. Mennucci, H. P. Hratchian, 
 J. V. Ortiz, A. F. Izmaylov, J. L. Sonnenberg, D. Williams-Young, 
 F. Ding, F. Lipparini, F. Egidi, J. Goings, B. Peng, A. Petrone, 
 T. Henderson, D. Ranasinghe, V. G. Zakrzewski, J. Gao, N. Rega, 
 G. Zheng, W. Liang, M. Hada, M. Ehara, K. Toyota, R. Fukuda, 
 J. Hasegawa, M. Ishida, T. Nakajima, Y. Honda, O. Kitao, H. Nakai, 
 T. Vreven, K. Throssell, J. A. Montgomery, Jr., J. E. Peralta, 
 F. Ogliaro, M. J. Bearpark, J. J. Heyd, E. N. Brothers, K. N. Kudin, 
 V. N. Staroverov, T. A. Keith, R. Kobayashi, J. Normand, 
 K. Raghavachari, A. P. Rendell, J. C. Burant, S. S. Iyengar, 
 J. Tomasi, M. Cossi, J. M. Millam, M. Klene, C. Adamo, R. Cammi, 
 J. W. Ochterski, R. L. Martin, K. Morokuma, O. Farkas, 
 J. B. Foresman, and D. J. Fox, Gaussian, Inc., Wallingford CT, 2016.
 
 ******************************************
 Gaussian 16:  EM64L-G16RevB.01 20-Dec-2017
                29-Oct-2023 
 ******************************************
 %chk=./chk/17.chk
 ---------------------------
 # B3LYP/6-31G(d,p) OPT FREQ
 ---------------------------
 1/18=20,19=15,26=3,38=1/1,3;
 2/9=110,12=2,17=6,18=5,40=1/2;
 3/5=1,6=6,7=101,11=2,25=1,30=1,71=1,74=-5/1,2,3;
 4//1;
 5/5=2,38=5/2;
 6/7=2,8=2,9=2,10=2,28=1/1;
 7//1,2,3,16;
 1/18=20,19=15,26=3/3(2);
 2/9=110/2;
 99//99;
 2/9=110/2;
 3/5=1,6=6,7=101,11=2,25=1,30=1,71=1,74=-5/1,2,3;
 4/5=5,16=3,69=1/1;
 5/5=2,38=5/2;
 7//1,2,3,16;
 1/18=20,19=15,26=3/3(-5);
 2/9=110/2;
 6/7=2,8=2,9=2,10=2,19=2,28=1/1;
 99/9=1/99;
 ------
 17poly
 ------
 Symbolic Z-matrix:
 Charge =  0 Multiplicity = 1
 C                    -9.26226   1.88471   2.35886 
 C                    -8.22995   2.15856   1.55802 
 C                    -6.91523   1.51477   1.75828 
 C                    -5.8848    1.7913    0.94848 
 C                    -4.56845   1.14721   1.14148 
 C                    -3.54547   1.42085   0.3213 
 C                    -2.22717   0.77635   0.49957 
 C                    -1.21767   1.04571  -0.33856 
 C                     0.10372   0.40137  -0.18364 
 C                     1.09357   0.66617  -1.04667 
 C                     2.42018   0.02368  -0.92387 
 C                     3.38217   0.2917   -1.82418 
 C                     4.74891  -0.29227  -1.83092 
 C                     5.22764  -1.16216  -0.91608 
 C                     6.59724  -1.75193  -0.94017 
 C                     7.51987  -1.51058  -1.8959 
 C                     8.88573  -2.09721  -1.94379 
 C                     9.40921  -2.93888  -1.02702 
 C                     10.78064  -3.52101  -1.09608 
 C                     11.65932  -3.30062  -2.09717 
 C                     13.02705  -3.87628  -2.17844 
 C                     13.59455  -4.68176  -1.26368 
 C                     14.97103  -5.18106  -1.47292 
 C                     15.57606  -5.97105  -0.57602 
 C                     16.95472  -6.44994  -0.81121 
 C                     17.58666  -7.22602   0.07887 
 C                     18.96764  -7.68814  -0.17519 
 C                     19.62049  -8.45149   0.71077 
 C                     21.00316  -8.90093   0.44383 
 C                     21.6703  -9.65427   1.32773 
 C                     23.054   -10.09567   1.05324 
 C                     23.72917  -10.8426   1.9365 
 C                     25.1128  -11.2798   1.65826 
 C                     25.79236  -12.02154   2.53576 
 H                    -9.16507   1.18119   3.18043 
 H                    -8.36791   2.86803   0.74636 
 H                    -6.78778   0.80659   2.57383 
 H                    -6.01538   2.4987    0.13252 
 H                    -4.43418   0.44061   1.95725 
 H                    -3.6844    2.12574  -0.49547 
 H                    -2.08124   0.07272   1.31584 
 H                    -1.37101   1.74692  -1.15597 
 H                     0.26705  -0.29815   0.6328 
 H                     0.91861   1.3631   -1.86347 
 H                     2.5883   -0.66593  -0.1053 
 H                     3.16013   0.98598  -2.63058 
 H                     5.36876   0.03418  -2.65396 
 H                     4.60193  -1.47987  -0.09195 
 H                     6.82577  -2.42124  -0.1212 
 H                     7.29193  -0.84865  -2.71941 
 H                     9.46867  -1.79445  -2.80219 
 H                     8.8251   -3.23538  -0.16565 
 H                     11.05282  -4.16393  -0.26893 
 H                     11.3935  -2.66523  -2.93 
 H                     13.60142  -3.60722  -3.06132 
 H                     13.06671  -4.97656  -0.36447 
 H                     15.50332  -4.8945   -2.37749 
 H                     15.0547  -6.26062   0.33336 
 H                     17.46471  -6.15976  -1.72733 
 H                     17.08453  -7.51717   0.99858 
 H                     19.46085  -7.39698  -1.1001 
 H                     19.13305  -8.74282   1.63834 
 H                     21.48451  -8.61009  -0.48735 
 H                     21.19261  -9.94489   2.26061 
 H                     23.52842  -9.80578   0.11825 
 H                     23.25732  -11.13263   2.87258 
 H                     25.59338  -10.99661   0.7255 
 H                     25.34759  -12.32465   3.479 
 H                     26.80791  -12.33168   2.31156 
 H                    -10.21957   2.36845   2.19351 
 

 GradGradGradGradGradGradGradGradGradGradGradGradGradGradGradGradGradGrad
 Berny optimization.
 Initialization pass.
                           ----------------------------
                           !    Initial Parameters    !
                           ! (Angstroms and Degrees)  !
 --------------------------                            --------------------------
 ! Name  Definition              Value          Derivative Info.                !
 --------------------------------------------------------------------------------
 ! R1    R(1,2)                  1.3349         estimate D2E/DX2                !
 ! R2    R(1,35)                 1.086          estimate D2E/DX2                !
 ! R3    R(1,70)                 1.0853         estimate D2E/DX2                !
 ! R4    R(2,3)                  1.4775         estimate D2E/DX2                !
 ! R5    R(2,36)                 1.0868         estimate D2E/DX2                !
 ! R6    R(3,4)                  1.3394         estimate D2E/DX2                !
 ! R7    R(3,37)                 1.0876         estimate D2E/DX2                !
 ! R8    R(4,5)                  1.4781         estimate D2E/DX2                !
 ! R9    R(4,38)                 1.0878         estimate D2E/DX2                !
 ! R10   R(5,6)                  1.3394         estimate D2E/DX2                !
 ! R11   R(5,39)                 1.0876         estimate D2E/DX2                !
 ! R12   R(6,7)                  1.4782         estimate D2E/DX2                !
 ! R13   R(6,40)                 1.0878         estimate D2E/DX2                !
 ! R14   R(7,8)                  1.3394         estimate D2E/DX2                !
 ! R15   R(7,41)                 1.0875         estimate D2E/DX2                !
 ! R16   R(8,9)                  1.4783         estimate D2E/DX2                !
 ! R17   R(8,42)                 1.0878         estimate D2E/DX2                !
 ! R18   R(9,10)                 1.3397         estimate D2E/DX2                !
 ! R19   R(9,43)                 1.0875         estimate D2E/DX2                !
 ! R20   R(10,11)                1.4791         estimate D2E/DX2                !
 ! R21   R(10,44)                1.0879         estimate D2E/DX2                !
 ! R22   R(11,12)                1.3446         estimate D2E/DX2                !
 ! R23   R(11,45)                1.0835         estimate D2E/DX2                !
 ! R24   R(12,13)                1.4863         estimate D2E/DX2                !
 ! R25   R(12,46)                1.087          estimate D2E/DX2                !
 ! R26   R(13,14)                1.3501         estimate D2E/DX2                !
 ! R27   R(13,47)                1.0808         estimate D2E/DX2                !
 ! R28   R(14,15)                1.4914         estimate D2E/DX2                !
 ! R29   R(14,48)                1.0824         estimate D2E/DX2                !
 ! R30   R(15,16)                1.3502         estimate D2E/DX2                !
 ! R31   R(15,49)                1.0821         estimate D2E/DX2                !
 ! R32   R(16,17)                1.4873         estimate D2E/DX2                !
 ! R33   R(16,50)                1.0809         estimate D2E/DX2                !
 ! R34   R(17,18)                1.3502         estimate D2E/DX2                !
 ! R35   R(17,51)                1.0809         estimate D2E/DX2                !
 ! R36   R(18,19)                1.4915         estimate D2E/DX2                !
 ! R37   R(18,52)                1.0821         estimate D2E/DX2                !
 ! R38   R(19,20)                1.3501         estimate D2E/DX2                !
 ! R39   R(19,53)                1.0824         estimate D2E/DX2                !
 ! R40   R(20,21)                1.4862         estimate D2E/DX2                !
 ! R41   R(20,54)                1.0807         estimate D2E/DX2                !
 ! R42   R(21,22)                1.3445         estimate D2E/DX2                !
 ! R43   R(21,55)                1.0871         estimate D2E/DX2                !
 ! R44   R(22,23)                1.4791         estimate D2E/DX2                !
 ! R45   R(22,56)                1.0836         estimate D2E/DX2                !
 ! R46   R(23,24)                1.3396         estimate D2E/DX2                !
 ! R47   R(23,57)                1.088          estimate D2E/DX2                !
 ! R48   R(24,25)                1.4783         estimate D2E/DX2                !
 ! R49   R(24,58)                1.0875         estimate D2E/DX2                !
 ! R50   R(25,26)                1.3394         estimate D2E/DX2                !
 ! R51   R(25,59)                1.0879         estimate D2E/DX2                !
 ! R52   R(26,27)                1.4782         estimate D2E/DX2                !
 ! R53   R(26,60)                1.0876         estimate D2E/DX2                !
 ! R54   R(27,28)                1.3393         estimate D2E/DX2                !
 ! R55   R(27,61)                1.0879         estimate D2E/DX2                !
 ! R56   R(28,29)                1.4782         estimate D2E/DX2                !
 ! R57   R(28,62)                1.0876         estimate D2E/DX2                !
 ! R58   R(29,30)                1.3394         estimate D2E/DX2                !
 ! R59   R(29,63)                1.0878         estimate D2E/DX2                !
 ! R60   R(30,31)                1.4781         estimate D2E/DX2                !
 ! R61   R(30,64)                1.0876         estimate D2E/DX2                !
 ! R62   R(31,32)                1.3394         estimate D2E/DX2                !
 ! R63   R(31,65)                1.0878         estimate D2E/DX2                !
 ! R64   R(32,33)                1.4775         estimate D2E/DX2                !
 ! R65   R(32,66)                1.0877         estimate D2E/DX2                !
 ! R66   R(33,34)                1.3349         estimate D2E/DX2                !
 ! R67   R(33,67)                1.0868         estimate D2E/DX2                !
 ! R68   R(34,68)                1.086          estimate D2E/DX2                !
 ! R69   R(34,69)                1.0853         estimate D2E/DX2                !
 ! A1    A(2,1,35)             121.1676         estimate D2E/DX2                !
 ! A2    A(2,1,70)             119.9536         estimate D2E/DX2                !
 ! A3    A(35,1,70)            118.8788         estimate D2E/DX2                !
 ! A4    A(1,2,3)              121.1586         estimate D2E/DX2                !
 ! A5    A(1,2,36)             118.9329         estimate D2E/DX2                !
 ! A6    A(3,2,36)             119.9085         estimate D2E/DX2                !
 ! A7    A(2,3,4)              120.8404         estimate D2E/DX2                !
 ! A8    A(2,3,37)             119.3156         estimate D2E/DX2                !
 ! A9    A(4,3,37)             119.8439         estimate D2E/DX2                !
 ! A10   A(3,4,5)              121.0783         estimate D2E/DX2                !
 ! A11   A(3,4,38)             119.698          estimate D2E/DX2                !
 ! A12   A(5,4,38)             119.2235         estimate D2E/DX2                !
 ! A13   A(4,5,6)              120.7423         estimate D2E/DX2                !
 ! A14   A(4,5,39)             119.4062         estimate D2E/DX2                !
 ! A15   A(6,5,39)             119.8511         estimate D2E/DX2                !
 ! A16   A(5,6,7)              121.212          estimate D2E/DX2                !
 ! A17   A(5,6,40)             119.6443         estimate D2E/DX2                !
 ! A18   A(7,6,40)             119.1429         estimate D2E/DX2                !
 ! A19   A(6,7,8)              120.5972         estimate D2E/DX2                !
 ! A20   A(6,7,41)             119.4911         estimate D2E/DX2                !
 ! A21   A(8,7,41)             119.9105         estimate D2E/DX2                !
 ! A22   A(7,8,9)              121.3629         estimate D2E/DX2                !
 ! A23   A(7,8,42)             119.576          estimate D2E/DX2                !
 ! A24   A(9,8,42)             119.0596         estimate D2E/DX2                !
 ! A25   A(8,9,10)             120.4503         estimate D2E/DX2                !
 ! A26   A(8,9,43)             119.5596         estimate D2E/DX2                !
 ! A27   A(10,9,43)            119.9881         estimate D2E/DX2                !
 ! A28   A(9,10,11)            121.557          estimate D2E/DX2                !
 ! A29   A(9,10,44)            119.438          estimate D2E/DX2                !
 ! A30   A(11,10,44)           119.0028         estimate D2E/DX2                !
 ! A31   A(10,11,12)           119.9689         estimate D2E/DX2                !
 ! A32   A(10,11,45)           118.5795         estimate D2E/DX2                !
 ! A33   A(12,11,45)           121.4491         estimate D2E/DX2                !
 ! A34   A(11,12,13)           125.637          estimate D2E/DX2                !
 ! A35   A(11,12,46)           118.5486         estimate D2E/DX2                !
 ! A36   A(13,12,46)           115.8121         estimate D2E/DX2                !
 ! A37   A(12,13,14)           125.1791         estimate D2E/DX2                !
 ! A38   A(12,13,47)           114.3401         estimate D2E/DX2                !
 ! A39   A(14,13,47)           120.4807         estimate D2E/DX2                !
 ! A40   A(13,14,15)           124.7134         estimate D2E/DX2                !
 ! A41   A(13,14,48)           120.0034         estimate D2E/DX2                !
 ! A42   A(15,14,48)           115.2831         estimate D2E/DX2                !
 ! A43   A(14,15,16)           124.6315         estimate D2E/DX2                !
 ! A44   A(14,15,49)           115.2347         estimate D2E/DX2                !
 ! A45   A(16,15,49)           120.1317         estimate D2E/DX2                !
 ! A46   A(15,16,17)           125.4398         estimate D2E/DX2                !
 ! A47   A(15,16,50)           120.3101         estimate D2E/DX2                !
 ! A48   A(17,16,50)           114.2486         estimate D2E/DX2                !
 ! A49   A(16,17,18)           125.457          estimate D2E/DX2                !
 ! A50   A(16,17,51)           114.2283         estimate D2E/DX2                !
 ! A51   A(18,17,51)           120.3147         estimate D2E/DX2                !
 ! A52   A(17,18,19)           124.638          estimate D2E/DX2                !
 ! A53   A(17,18,52)           120.1322         estimate D2E/DX2                !
 ! A54   A(19,18,52)           115.2297         estimate D2E/DX2                !
 ! A55   A(18,19,20)           124.6845         estimate D2E/DX2                !
 ! A56   A(18,19,53)           115.3199         estimate D2E/DX2                !
 ! A57   A(20,19,53)           119.9951         estimate D2E/DX2                !
 ! A58   A(19,20,21)           125.1884         estimate D2E/DX2                !
 ! A59   A(19,20,54)           120.484          estimate D2E/DX2                !
 ! A60   A(21,20,54)           114.3274         estimate D2E/DX2                !
 ! A61   A(20,21,22)           125.6841         estimate D2E/DX2                !
 ! A62   A(20,21,55)           115.7723         estimate D2E/DX2                !
 ! A63   A(22,21,55)           118.5434         estimate D2E/DX2                !
 ! A64   A(21,22,23)           119.9204         estimate D2E/DX2                !
 ! A65   A(21,22,56)           121.4665         estimate D2E/DX2                !
 ! A66   A(23,22,56)           118.6128         estimate D2E/DX2                !
 ! A67   A(22,23,24)           121.6453         estimate D2E/DX2                !
 ! A68   A(22,23,57)           118.9474         estimate D2E/DX2                !
 ! A69   A(24,23,57)           119.4069         estimate D2E/DX2                !
 ! A70   A(23,24,25)           120.3794         estimate D2E/DX2                !
 ! A71   A(23,24,58)           120.0239         estimate D2E/DX2                !
 ! A72   A(25,24,58)           119.5962         estimate D2E/DX2                !
 ! A73   A(24,25,26)           121.467          estimate D2E/DX2                !
 ! A74   A(24,25,59)           118.996          estimate D2E/DX2                !
 ! A75   A(26,25,59)           119.5366         estimate D2E/DX2                !
 ! A76   A(25,26,27)           120.5112         estimate D2E/DX2                !
 ! A77   A(25,26,60)           119.9516         estimate D2E/DX2                !
 ! A78   A(27,26,60)           119.5368         estimate D2E/DX2                !
 ! A79   A(26,27,28)           121.3224         estimate D2E/DX2                !
 ! A80   A(26,27,61)           119.0772         estimate D2E/DX2                !
 ! A81   A(28,27,61)           119.6            estimate D2E/DX2                !
 ! A82   A(27,28,29)           120.6493         estimate D2E/DX2                !
 ! A83   A(27,28,62)           119.8924         estimate D2E/DX2                !
 ! A84   A(29,28,62)           119.4581         estimate D2E/DX2                !
 ! A85   A(28,29,30)           121.1822         estimate D2E/DX2                !
 ! A86   A(28,29,63)           119.1554         estimate D2E/DX2                !
 ! A87   A(30,29,63)           119.6622         estimate D2E/DX2                !
 ! A88   A(29,30,31)           120.7774         estimate D2E/DX2                !
 ! A89   A(29,30,64)           119.8399         estimate D2E/DX2                !
 ! A90   A(31,30,64)           119.3825         estimate D2E/DX2                !
 ! A91   A(30,31,32)           121.0623         estimate D2E/DX2                !
 ! A92   A(30,31,65)           119.2287         estimate D2E/DX2                !
 ! A93   A(32,31,65)           119.7089         estimate D2E/DX2                !
 ! A94   A(31,32,33)           120.857          estimate D2E/DX2                !
 ! A95   A(31,32,66)           119.8395         estimate D2E/DX2                !
 ! A96   A(33,32,66)           119.3035         estimate D2E/DX2                !
 ! A97   A(32,33,34)           121.1547         estimate D2E/DX2                !
 ! A98   A(32,33,67)           119.9083         estimate D2E/DX2                !
 ! A99   A(34,33,67)           118.937          estimate D2E/DX2                !
 ! A100  A(33,34,68)           121.167          estimate D2E/DX2                !
 ! A101  A(33,34,69)           119.9575         estimate D2E/DX2                !
 ! A102  A(68,34,69)           118.8755         estimate D2E/DX2                !
 ! D1    D(35,1,2,3)             0.0153         estimate D2E/DX2                !
 ! D2    D(35,1,2,36)          179.9596         estimate D2E/DX2                !
 ! D3    D(70,1,2,3)          -179.9579         estimate D2E/DX2                !
 ! D4    D(70,1,2,36)           -0.0136         estimate D2E/DX2                !
 ! D5    D(1,2,3,4)            179.8032         estimate D2E/DX2                !
 ! D6    D(1,2,3,37)            -0.083          estimate D2E/DX2                !
 ! D7    D(36,2,3,4)            -0.1405         estimate D2E/DX2                !
 ! D8    D(36,2,3,37)          179.9732         estimate D2E/DX2                !
 ! D9    D(2,3,4,5)           -179.8115         estimate D2E/DX2                !
 ! D10   D(2,3,4,38)             0.0113         estimate D2E/DX2                !
 ! D11   D(37,3,4,5)             0.0742         estimate D2E/DX2                !
 ! D12   D(37,3,4,38)          179.897          estimate D2E/DX2                !
 ! D13   D(3,4,5,6)            179.4772         estimate D2E/DX2                !
 ! D14   D(3,4,5,39)            -0.2669         estimate D2E/DX2                !
 ! D15   D(38,4,5,6)            -0.3464         estimate D2E/DX2                !
 ! D16   D(38,4,5,39)          179.9095         estimate D2E/DX2                !
 ! D17   D(4,5,6,7)           -179.6109         estimate D2E/DX2                !
 ! D18   D(4,5,6,40)             0.0629         estimate D2E/DX2                !
 ! D19   D(39,5,6,7)             0.1321         estimate D2E/DX2                !
 ! D20   D(39,5,6,40)          179.8059         estimate D2E/DX2                !
 ! D21   D(5,6,7,8)            179.114          estimate D2E/DX2                !
 ! D22   D(5,6,7,41)            -0.484          estimate D2E/DX2                !
 ! D23   D(40,6,7,8)            -0.5614         estimate D2E/DX2                !
 ! D24   D(40,6,7,41)          179.8406         estimate D2E/DX2                !
 ! D25   D(6,7,8,9)           -179.4203         estimate D2E/DX2                !
 ! D26   D(6,7,8,42)             0.1206         estimate D2E/DX2                !
 ! D27   D(41,7,8,9)             0.176          estimate D2E/DX2                !
 ! D28   D(41,7,8,42)          179.717          estimate D2E/DX2                !
 ! D29   D(7,8,9,10)           178.8084         estimate D2E/DX2                !
 ! D30   D(7,8,9,43)            -0.6785         estimate D2E/DX2                !
 ! D31   D(42,8,9,10)           -0.7349         estimate D2E/DX2                !
 ! D32   D(42,8,9,43)          179.7783         estimate D2E/DX2                !
 ! D33   D(8,9,10,11)         -179.2903         estimate D2E/DX2                !
 ! D34   D(8,9,10,44)            0.1685         estimate D2E/DX2                !
 ! D35   D(43,9,10,11)           0.1944         estimate D2E/DX2                !
 ! D36   D(43,9,10,44)         179.6531         estimate D2E/DX2                !
 ! D37   D(9,10,11,12)         178.6229         estimate D2E/DX2                !
 ! D38   D(9,10,11,45)          -0.8045         estimate D2E/DX2                !
 ! D39   D(44,10,11,12)         -0.8381         estimate D2E/DX2                !
 ! D40   D(44,10,11,45)        179.7345         estimate D2E/DX2                !
 ! D41   D(10,11,12,13)       -179.245          estimate D2E/DX2                !
 ! D42   D(10,11,12,46)          0.1724         estimate D2E/DX2                !
 ! D43   D(45,11,12,13)          0.1655         estimate D2E/DX2                !
 ! D44   D(45,11,12,46)        179.583          estimate D2E/DX2                !
 ! D45   D(11,12,13,14)         -1.1796         estimate D2E/DX2                !
 ! D46   D(11,12,13,47)        178.6646         estimate D2E/DX2                !
 ! D47   D(46,12,13,14)        179.3888         estimate D2E/DX2                !
 ! D48   D(46,12,13,47)         -0.7669         estimate D2E/DX2                !
 ! D49   D(12,13,14,15)        179.3875         estimate D2E/DX2                !
 ! D50   D(12,13,14,48)         -0.4911         estimate D2E/DX2                !
 ! D51   D(47,13,14,15)         -0.4478         estimate D2E/DX2                !
 ! D52   D(47,13,14,48)        179.6735         estimate D2E/DX2                !
 ! D53   D(13,14,15,16)         -1.4484         estimate D2E/DX2                !
 ! D54   D(13,14,15,49)        179.0725         estimate D2E/DX2                !
 ! D55   D(48,14,15,16)        178.4353         estimate D2E/DX2                !
 ! D56   D(48,14,15,49)         -1.0438         estimate D2E/DX2                !
 ! D57   D(14,15,16,17)       -179.4605         estimate D2E/DX2                !
 ! D58   D(14,15,16,50)          0.0592         estimate D2E/DX2                !
 ! D59   D(49,15,16,17)         -0.0053         estimate D2E/DX2                !
 ! D60   D(49,15,16,50)        179.5144         estimate D2E/DX2                !
 ! D61   D(15,16,17,18)         -1.1599         estimate D2E/DX2                !
 ! D62   D(15,16,17,51)        178.8571         estimate D2E/DX2                !
 ! D63   D(50,16,17,18)        179.2949         estimate D2E/DX2                !
 ! D64   D(50,16,17,51)         -0.6881         estimate D2E/DX2                !
 ! D65   D(16,17,18,19)        179.7469         estimate D2E/DX2                !
 ! D66   D(16,17,18,52)         -0.3497         estimate D2E/DX2                !
 ! D67   D(51,17,18,19)         -0.2711         estimate D2E/DX2                !
 ! D68   D(51,17,18,52)        179.6323         estimate D2E/DX2                !
 ! D69   D(17,18,19,20)         -1.4156         estimate D2E/DX2                !
 ! D70   D(17,18,19,53)        178.8611         estimate D2E/DX2                !
 ! D71   D(52,18,19,20)        178.6767         estimate D2E/DX2                !
 ! D72   D(52,18,19,53)         -1.0466         estimate D2E/DX2                !
 ! D73   D(18,19,20,21)       -179.8961         estimate D2E/DX2                !
 ! D74   D(18,19,20,54)         -0.1063         estimate D2E/DX2                !
 ! D75   D(53,19,20,21)         -0.185          estimate D2E/DX2                !
 ! D76   D(53,19,20,54)        179.6048         estimate D2E/DX2                !
 ! D77   D(19,20,21,22)         -0.968          estimate D2E/DX2                !
 ! D78   D(19,20,21,55)        179.207          estimate D2E/DX2                !
 ! D79   D(54,20,21,22)        179.2308         estimate D2E/DX2                !
 ! D80   D(54,20,21,55)         -0.5942         estimate D2E/DX2                !
 ! D81   D(20,21,22,23)       -179.8609         estimate D2E/DX2                !
 ! D82   D(20,21,22,56)         -0.0751         estimate D2E/DX2                !
 ! D83   D(55,21,22,23)         -0.0402         estimate D2E/DX2                !
 ! D84   D(55,21,22,56)        179.7456         estimate D2E/DX2                !
 ! D85   D(21,22,23,24)        179.1234         estimate D2E/DX2                !
 ! D86   D(21,22,23,57)         -0.6615         estimate D2E/DX2                !
 ! D87   D(56,22,23,24)         -0.6684         estimate D2E/DX2                !
 ! D88   D(56,22,23,57)        179.5467         estimate D2E/DX2                !
 ! D89   D(22,23,24,25)       -179.7675         estimate D2E/DX2                !
 ! D90   D(22,23,24,58)         -0.0125         estimate D2E/DX2                !
 ! D91   D(57,23,24,25)          0.0165         estimate D2E/DX2                !
 ! D92   D(57,23,24,58)        179.7715         estimate D2E/DX2                !
 ! D93   D(23,24,25,26)        179.1103         estimate D2E/DX2                !
 ! D94   D(23,24,25,59)         -0.6491         estimate D2E/DX2                !
 ! D95   D(58,24,25,26)         -0.6457         estimate D2E/DX2                !
 ! D96   D(58,24,25,59)        179.5949         estimate D2E/DX2                !
 ! D97   D(24,25,26,27)       -179.7335         estimate D2E/DX2                !
 ! D98   D(24,25,26,60)          0.0197         estimate D2E/DX2                !
 ! D99   D(59,25,26,27)          0.0246         estimate D2E/DX2                !
 ! D100  D(59,25,26,60)        179.7778         estimate D2E/DX2                !
 ! D101  D(25,26,27,28)        179.2019         estimate D2E/DX2                !
 ! D102  D(25,26,27,61)         -0.5796         estimate D2E/DX2                !
 ! D103  D(60,26,27,28)         -0.5524         estimate D2E/DX2                !
 ! D104  D(60,26,27,61)        179.6662         estimate D2E/DX2                !
 ! D105  D(26,27,28,29)       -179.762          estimate D2E/DX2                !
 ! D106  D(26,27,28,62)          0.0319         estimate D2E/DX2                !
 ! D107  D(61,27,28,29)          0.0184         estimate D2E/DX2                !
 ! D108  D(61,27,28,62)        179.8123         estimate D2E/DX2                !
 ! D109  D(27,28,29,30)        179.3819         estimate D2E/DX2                !
 ! D110  D(27,28,29,63)         -0.4559         estimate D2E/DX2                !
 ! D111  D(62,28,29,30)         -0.4129         estimate D2E/DX2                !
 ! D112  D(62,28,29,63)        179.7493         estimate D2E/DX2                !
 ! D113  D(28,29,30,31)       -179.8325         estimate D2E/DX2                !
 ! D114  D(28,29,30,64)          0.0282         estimate D2E/DX2                !
 ! D115  D(63,29,30,31)          0.0045         estimate D2E/DX2                !
 ! D116  D(63,29,30,64)        179.8652         estimate D2E/DX2                !
 ! D117  D(29,30,31,32)        179.6092         estimate D2E/DX2                !
 ! D118  D(29,30,31,65)         -0.3001         estimate D2E/DX2                !
 ! D119  D(64,30,31,32)         -0.2521         estimate D2E/DX2                !
 ! D120  D(64,30,31,65)        179.8386         estimate D2E/DX2                !
 ! D121  D(30,31,32,33)       -179.9172         estimate D2E/DX2                !
 ! D122  D(30,31,32,66)          0.0148         estimate D2E/DX2                !
 ! D123  D(65,31,32,33)         -0.0082         estimate D2E/DX2                !
 ! D124  D(65,31,32,66)        179.9237         estimate D2E/DX2                !
 ! D125  D(31,32,33,34)        179.8322         estimate D2E/DX2                !
 ! D126  D(31,32,33,67)         -0.1399         estimate D2E/DX2                !
 ! D127  D(66,32,33,34)         -0.1001         estimate D2E/DX2                !
 ! D128  D(66,32,33,67)        179.9278         estimate D2E/DX2                !
 ! D129  D(32,33,34,68)         -0.0017         estimate D2E/DX2                !
 ! D130  D(32,33,34,69)       -179.9809         estimate D2E/DX2                !
 ! D131  D(67,33,34,68)        179.9707         estimate D2E/DX2                !
 ! D132  D(67,33,34,69)         -0.0086         estimate D2E/DX2                !
 --------------------------------------------------------------------------------
 Trust Radius=3.00D-01 FncErr=1.00D-07 GrdErr=1.00D-06 EigMax=2.50D+02 EigMin=1.00D-04
 Number of steps in this run=    313 maximum allowed number of steps=    420.
 GradGradGradGradGradGradGradGradGradGradGradGradGradGradGradGradGradGrad

 Stoichiometry    C34H36
 Framework group  C1[X(C34H36)]
 Deg. of freedom   204
 Full point group                 C1      NOp   1
 Largest Abelian subgroup         C1      NOp   1
 Largest concise Abelian subgroup C1      NOp   1
                         Standard orientation:                         
 ---------------------------------------------------------------------
 Center     Atomic      Atomic             Coordinates (Angstroms)
 Number     Number       Type             X           Y           Z
 ---------------------------------------------------------------------
      1          6           0      -18.735500    3.274030    0.238533
      2          6           0      -17.891690    2.243221    0.152349
      3          6           0      -16.429441    2.452787    0.121249
      4          6           0      -15.588450    1.413597    0.038610
      5          6           0      -14.124624    1.616946    0.011290
      6          6           0      -13.289470    0.572260   -0.060986
      7          6           0      -11.823779    0.763185   -0.080362
      8          6           0      -10.999559   -0.291221   -0.135078
      9          6           0       -9.531221   -0.120402   -0.142480
     10          6           0       -8.723558   -1.188798   -0.173600
     11          6           0       -7.251312   -1.046702   -0.166083
     12          6           0       -6.470848   -2.141546   -0.170069
     13          6           0       -4.984738   -2.145740   -0.147570
     14          6           0       -4.203765   -1.044433   -0.142511
     15          6           0       -2.712903   -1.060642   -0.106761
     16          6           0       -1.958939   -2.179076   -0.046914
     17          6           0       -0.472886   -2.215803    0.000916
     18          6           0        0.338653   -1.137227   -0.030792
     19          6           0        1.827993   -1.195045    0.023680
     20          6           0        2.549087   -2.330656    0.138793
     21          6           0        4.032462   -2.401110    0.196287
     22          6           0        4.870797   -1.352477    0.124122
     23          6           0        6.332226   -1.570232    0.191901
     24          6           0        7.199185   -0.552593    0.106058
     25          6           0        8.654646   -0.802836    0.172020
     26          6           0        9.541103    0.196091    0.070862
     27          6           0       10.992169   -0.078938    0.133790
     28          6           0       11.893038    0.905439    0.018616
     29          6           0       13.340738    0.612838    0.078498
     30          6           0       14.250968    1.587230   -0.047698
     31          6           0       15.696496    1.284005    0.009910
     32          6           0       16.611682    2.252809   -0.123355
     33          6           0       18.055509    1.944322   -0.066846
     34          6           0       18.972726    2.904716   -0.202254
     35          1           0      -18.371266    4.295909    0.287989
     36          1           0      -18.295811    1.235417    0.105593
     37          1           0      -16.035501    3.465462    0.168146
     38          1           0      -15.984983    0.401669   -0.006470
     39          1           0      -13.724985    2.627485    0.054712
     40          1           0      -13.692767   -0.437214   -0.101065
     41          1           0      -11.414505    1.770063   -0.043160
     42          1           0      -11.414758   -1.296174   -0.167447
     43          1           0       -9.107440    0.880680   -0.113992
     44          1           0       -9.157088   -2.186309   -0.196240
     45          1           0       -6.826884   -0.049999   -0.147897
     46          1           0       -6.946799   -3.118766   -0.181715
     47          1           0       -4.542241   -3.131703   -0.132157
     48          1           0       -4.655022   -0.060782   -0.163401
     49          1           0       -2.240436   -0.087283   -0.123334
     50          1           0       -2.428061   -3.152514   -0.022316
     51          1           0       -0.055633   -3.210796    0.065880
     52          1           0       -0.082060   -0.142747   -0.101853
     53          1           0        2.330732   -0.238060   -0.031423
     54          1           0        2.055079   -3.289871    0.200845
     55          1           0        4.454551   -3.397167    0.303490
     56          1           0        4.501659   -0.339827    0.012912
     57          1           0        6.708600   -2.584057    0.311028
     58          1           0        6.834088    0.464382   -0.016881
     59          1           0        9.008965   -1.823222    0.301830
     60          1           0        9.194442    1.218227   -0.062678
     61          1           0       11.330548   -1.103436    0.273041
     62          1           0       11.560078    1.930966   -0.123804
     63          1           0       13.668242   -0.414098    0.225223
     64          1           0       13.926771    2.614660   -0.196698
     65          1           0       16.017934    0.255914    0.161678
     66          1           0       16.292669    3.281298   -0.276431
     67          1           0       18.385218    0.920191    0.086876
     68          1           0       18.683783    3.939953   -0.357808
     69          1           0       20.028217    2.656203   -0.157853
     70          1           0      -19.806091    3.097542    0.260629
 ---------------------------------------------------------------------
 Rotational constants (GHZ):           0.3880586           0.0089156           0.0087176
 Standard basis: 6-31G(d,p) (6D, 7F)
 There are   690 symmetry adapted cartesian basis functions of A   symmetry.
 There are   690 symmetry adapted basis functions of A   symmetry.
   690 basis functions,  1204 primitive gaussians,   690 cartesian basis functions
   120 alpha electrons      120 beta electrons
       nuclear repulsion energy      2242.7706864883 Hartrees.
 NAtoms=   70 NActive=   70 NUniq=   70 SFac= 1.00D+00 NAtFMM=   60 NAOKFM=T Big=T
 Integral buffers will be    131072 words long.
 Raffenetti 2 integral format.
 Two-electron integral symmetry is turned on.
 One-electron integrals computed using PRISM.
 NBasis=   690 RedAO= T EigKep=  7.31D-04  NBF=   690
 NBsUse=   690 1.00D-06 EigRej= -1.00D+00 NBFU=   690
 ExpMin= 1.61D-01 ExpMax= 3.05D+03 ExpMxC= 4.57D+02 IAcc=3 IRadAn=         5 AccDes= 0.00D+00
 Harris functional with IExCor=  402 and IRadAn=       5 diagonalized for initial guess.
 HarFok:  IExCor=  402 AccDes= 0.00D+00 IRadAn=         5 IDoV= 1 UseB2=F ITyADJ=14
 ICtDFT=  3500011 ScaDFX=  1.000000  1.000000  1.000000  1.000000
 FoFCou: FMM=F IPFlag=           0 FMFlag=      100000 FMFlg1=        2001
         NFxFlg=           0 DoJE=T BraDBF=F KetDBF=T FulRan=T
         wScrn=  0.000000 ICntrl=       500 IOpCl=  0 I1Cent=   200000004 NGrid=           0
         NMat0=    1 NMatS0=      1 NMatT0=    0 NMatD0=    1 NMtDS0=    0 NMtDT0=    0
 Petite list used in FoFCou.
 Requested convergence on RMS density matrix=1.00D-08 within 128 cycles.
 Requested convergence on MAX density matrix=1.00D-06.
 Requested convergence on             energy=1.00D-06.
 No special actions if energy rises.
 Integral accuracy reduced to 1.0D-05 until final iterations.
 Initial convergence to 1.0D-05 achieved.  Increase integral accuracy.
 SCF Done:  E(RB3LYP) =  -1317.09829733     A.U. after   13 cycles
            NFock= 13  Conv=0.70D-08     -V/T= 2.0101

 **********************************************************************

            Population analysis using the SCF Density.

 **********************************************************************

 Orbital symmetries:
       Occupied  (A) (A) (A) (A) (A) (A) (A) (A) (A) (A) (A) (A)
                 (A) (A) (A) (A) (A) (A) (A) (A) (A) (A) (A) (A)
                 (A) (A) (A) (A) (A) (A) (A) (A) (A) (A) (A) (A)
                 (A) (A) (A) (A) (A) (A) (A) (A) (A) (A) (A) (A)
                 (A) (A) (A) (A) (A) (A) (A) (A) (A) (A) (A) (A)
                 (A) (A) (A) (A) (A) (A) (A) (A) (A) (A) (A) (A)
                 (A) (A) (A) (A) (A) (A) (A) (A) (A) (A) (A) (A)
                 (A) (A) (A) (A) (A) (A) (A) (A) (A) (A) (A) (A)
                 (A) (A) (A) (A) (A) (A) (A) (A) (A) (A) (A) (A)
                 (A) (A) (A) (A) (A) (A) (A) (A) (A) (A) (A) (A)
       Virtual   (A) (A) (A) (A) (A) (A) (A) (A) (A) (A) (A) (A)
                 (A) (A) (A) (A) (A) (A) (A) (A) (A) (A) (A) (A)
                 (A) (A) (A) (A) (A) (A) (A) (A) (A) (A) (A) (A)
                 (A) (A) (A) (A) (A) (A) (A) (A) (A) (A) (A) (A)
                 (A) (A) (A) (A) (A) (A) (A) (A) (A) (A) (A) (A)
                 (A) (A) (A) (A) (A) (A) (A) (A) (A) (A) (A) (A)
                 (A) (A) (A) (A) (A) (A) (A) (A) (A) (A) (A) (A)
                 (A) (A) (A) (A) (A) (A) (A) (A) (A) (A) (A) (A)
                 (A) (A) (A) (A) (A) (A) (A) (A) (A) (A) (A) (A)
                 (A) (A) (A) (A) (A) (A) (A) (A) (A) (A) (A) (A)
                 (A) (A) (A) (A) (A) (A) (A) (A) (A) (A) (A) (A)
                 (A) (A) (A) (A) (A) (A) (A) (A) (A) (A) (A) (A)
                 (A) (A) (A) (A) (A) (A) (A) (A) (A) (A) (A) (A)
                 (A) (A) (A) (A) (A) (A) (A) (A) (A) (A) (A) (A)
                 (A) (A) (A) (A) (A) (A) (A) (A) (A) (A) (A) (A)
                 (A) (A) (A) (A) (A) (A) (A) (A) (A) (A) (A) (A)
                 (A) (A) (A) (A) (A) (A) (A) (A) (A) (A) (A) (A)
                 (A) (A) (A) (A) (A) (A) (A) (A) (A) (A) (A) (A)
                 (A) (A) (A) (A) (A) (A) (A) (A) (A) (A) (A) (A)
                 (A) (A) (A) (A) (A) (A) (A) (A) (A) (A) (A) (A)
                 (A) (A) (A) (A) (A) (A) (A) (A) (A) (A) (A) (A)
                 (A) (A) (A) (A) (A) (A) (A) (A) (A) (A) (A) (A)
                 (A) (A) (A) (A) (A) (A) (A) (A) (A) (A) (A) (A)
                 (A) (A) (A) (A) (A) (A) (A) (A) (A) (A) (A) (A)
                 (A) (A) (A) (A) (A) (A) (A) (A) (A) (A) (A) (A)
                 (A) (A) (A) (A) (A) (A) (A) (A) (A) (A) (A) (A)
                 (A) (A) (A) (A) (A) (A) (A) (A) (A) (A) (A) (A)
                 (A) (A) (A) (A) (A) (A) (A) (A) (A) (A) (A) (A)
                 (A) (A) (A) (A) (A) (A) (A) (A) (A) (A) (A) (A)
                 (A) (A) (A) (A) (A) (A) (A) (A) (A) (A) (A) (A)
                 (A) (A) (A) (A) (A) (A) (A) (A) (A) (A) (A) (A)
                 (A) (A) (A) (A) (A) (A) (A) (A) (A) (A) (A) (A)
                 (A) (A) (A) (A) (A) (A) (A) (A) (A) (A) (A) (A)
                 (A) (A) (A) (A) (A) (A) (A) (A) (A) (A) (A) (A)
                 (A) (A) (A) (A) (A) (A) (A) (A) (A) (A) (A) (A)
                 (A) (A) (A) (A) (A) (A) (A) (A) (A) (A) (A) (A)
                 (A) (A) (A) (A) (A) (A) (A) (A) (A) (A) (A) (A)
                 (A) (A) (A) (A) (A) (A) (A) (A) (A) (A) (A) (A)
                 (A) (A) (A) (A) (A) (A) (A) (A) (A) (A) (A) (A)
                 (A) (A) (A) (A) (A) (A) (A) (A) (A) (A) (A) (A)
                 (A) (A) (A) (A) (A) (A) (A) (A) (A) (A) (A) (A)
                 (A) (A) (A) (A) (A) (A) (A) (A) (A) (A) (A) (A)
                 (A) (A) (A) (A) (A) (A) (A) (A) (A) (A) (A) (A)
                 (A) (A) (A) (A) (A) (A) (A) (A) (A) (A) (A) (A)
                 (A) (A) (A) (A) (A) (A) (A) (A) (A) (A) (A) (A)
                 (A) (A) (A) (A) (A) (A) (A) (A) (A) (A) (A) (A)
                 (A) (A) (A) (A) (A) (A) (A) (A) (A) (A) (A) (A)
                 (A) (A) (A) (A) (A) (A)
 The electronic state is 1-A.
 Alpha  occ. eigenvalues --  -10.19385 -10.19383 -10.19354 -10.19351 -10.19281
 Alpha  occ. eigenvalues --  -10.19281 -10.19250 -10.19225 -10.19213 -10.19211
 Alpha  occ. eigenvalues --  -10.19206 -10.19203 -10.19178 -10.19177 -10.19165
 Alpha  occ. eigenvalues --  -10.19159 -10.19152 -10.19138 -10.19138 -10.19132
 Alpha  occ. eigenvalues --  -10.19115 -10.19114 -10.19111 -10.19110 -10.19094
 Alpha  occ. eigenvalues --  -10.19071 -10.19067 -10.19039 -10.19038 -10.19014
 Alpha  occ. eigenvalues --  -10.18954 -10.18936 -10.17927 -10.17914  -0.82890
 Alpha  occ. eigenvalues --   -0.82799  -0.82395  -0.82037  -0.81521  -0.80880
 Alpha  occ. eigenvalues --   -0.80152  -0.79311  -0.78371  -0.77334  -0.76210
 Alpha  occ. eigenvalues --   -0.74984  -0.73752  -0.72384  -0.71039  -0.70008
 Alpha  occ. eigenvalues --   -0.68402  -0.65040  -0.62854  -0.61844  -0.60867
 Alpha  occ. eigenvalues --   -0.59099  -0.57851  -0.57044  -0.56865  -0.56716
 Alpha  occ. eigenvalues --   -0.56137  -0.55797  -0.55130  -0.55000  -0.54645
 Alpha  occ. eigenvalues --   -0.54488  -0.52641  -0.50119  -0.50078  -0.48592
 Alpha  occ. eigenvalues --   -0.47872  -0.47813  -0.47211  -0.46712  -0.46203
 Alpha  occ. eigenvalues --   -0.45221  -0.45167  -0.44491  -0.43666  -0.43263
 Alpha  occ. eigenvalues --   -0.42116  -0.41535  -0.40917  -0.40712  -0.39760
 Alpha  occ. eigenvalues --   -0.39277  -0.39005  -0.38600  -0.38026  -0.37673
 Alpha  occ. eigenvalues --   -0.37619  -0.37450  -0.37060  -0.36690  -0.36334
 Alpha  occ. eigenvalues --   -0.35949  -0.35791  -0.35213  -0.35130  -0.35095
 Alpha  occ. eigenvalues --   -0.34611  -0.34541  -0.34475  -0.34136  -0.34090
 Alpha  occ. eigenvalues --   -0.33486  -0.33292  -0.33191  -0.32669  -0.31741
 Alpha  occ. eigenvalues --   -0.30666  -0.29458  -0.28121  -0.26666  -0.25091
 Alpha  occ. eigenvalues --   -0.23432  -0.21693  -0.19911  -0.18331  -0.16921
 Alpha virt. eigenvalues --   -0.08395  -0.06408  -0.04882  -0.03035  -0.00905
 Alpha virt. eigenvalues --    0.00857   0.02704   0.04458   0.05946   0.07303
 Alpha virt. eigenvalues --    0.07829   0.08339   0.08379   0.08759   0.09149
 Alpha virt. eigenvalues --    0.09314   0.09570   0.09855   0.09905   0.10121
 Alpha virt. eigenvalues --    0.10949   0.11743   0.11916   0.12077   0.12471
 Alpha virt. eigenvalues --    0.12589   0.12627   0.13020   0.13180   0.13917
 Alpha virt. eigenvalues --    0.14158   0.14291   0.14327   0.14424   0.14541
 Alpha virt. eigenvalues --    0.14882   0.15288   0.15435   0.15532   0.15870
 Alpha virt. eigenvalues --    0.16209   0.16663   0.17722   0.18330   0.19231
 Alpha virt. eigenvalues --    0.19826   0.19953   0.20149   0.20710   0.21323
 Alpha virt. eigenvalues --    0.22490   0.22879   0.25880   0.26206   0.27142
 Alpha virt. eigenvalues --    0.27300   0.28598   0.28769   0.29501   0.30526
 Alpha virt. eigenvalues --    0.31519   0.31889   0.31928   0.32657   0.33046
 Alpha virt. eigenvalues --    0.33235   0.34356   0.35114   0.35883   0.36194
 Alpha virt. eigenvalues --    0.36552   0.37080   0.37604   0.38285   0.38552
 Alpha virt. eigenvalues --    0.39725   0.40995   0.41447   0.41741   0.41914
 Alpha virt. eigenvalues --    0.42054   0.42994   0.44460   0.44973   0.45446
 Alpha virt. eigenvalues --    0.47360   0.48352   0.49053   0.51338   0.51458
 Alpha virt. eigenvalues --    0.51653   0.51906   0.52207   0.52739   0.53002
 Alpha virt. eigenvalues --    0.53305   0.53839   0.54045   0.54443   0.54921
 Alpha virt. eigenvalues --    0.55121   0.55901   0.56245   0.56814   0.56938
 Alpha virt. eigenvalues --    0.57416   0.57471   0.57612   0.58286   0.58359
 Alpha virt. eigenvalues --    0.58481   0.58806   0.58867   0.58990   0.59236
 Alpha virt. eigenvalues --    0.59382   0.59505   0.60257   0.60367   0.60428
 Alpha virt. eigenvalues --    0.60906   0.61187   0.61720   0.61796   0.62262
 Alpha virt. eigenvalues --    0.62358   0.63009   0.63098   0.63279   0.63938
 Alpha virt. eigenvalues --    0.64036   0.64452   0.64878   0.65113   0.65391
 Alpha virt. eigenvalues --    0.65399   0.65742   0.66224   0.66273   0.66477
 Alpha virt. eigenvalues --    0.66632   0.67603   0.67817   0.67968   0.68504
 Alpha virt. eigenvalues --    0.69600   0.69750   0.69784   0.70573   0.71612
 Alpha virt. eigenvalues --    0.71970   0.73251   0.74856   0.75270   0.75513
 Alpha virt. eigenvalues --    0.76071   0.78758   0.78857   0.79542   0.79912
 Alpha virt. eigenvalues --    0.80686   0.81130   0.81677   0.82300   0.83036
 Alpha virt. eigenvalues --    0.83496   0.83827   0.84247   0.84629   0.84661
 Alpha virt. eigenvalues --    0.84863   0.85194   0.85528   0.85658   0.86100
 Alpha virt. eigenvalues --    0.86264   0.86707   0.86801   0.87058   0.87210
 Alpha virt. eigenvalues --    0.87603   0.87690   0.88085   0.88288   0.88739
 Alpha virt. eigenvalues --    0.89115   0.89767   0.90776   0.91066   0.91467
 Alpha virt. eigenvalues --    0.91559   0.92114   0.92282   0.92560   0.93025
 Alpha virt. eigenvalues --    0.93514   0.93862   0.94261   0.94872   0.95392
 Alpha virt. eigenvalues --    0.96723   0.97413   0.97574   0.99223   1.02264
 Alpha virt. eigenvalues --    1.02962   1.03051   1.03359   1.03786   1.04254
 Alpha virt. eigenvalues --    1.04850   1.05089   1.05664   1.06077   1.06532
 Alpha virt. eigenvalues --    1.07153   1.07617   1.08162   1.08921   1.09342
 Alpha virt. eigenvalues --    1.09757   1.10332   1.10735   1.11471   1.11871
 Alpha virt. eigenvalues --    1.12914   1.17039   1.17389   1.18573   1.19070
 Alpha virt. eigenvalues --    1.19717   1.21071   1.21188   1.21686   1.22754
 Alpha virt. eigenvalues --    1.24454   1.26261   1.27764   1.28202   1.29069
 Alpha virt. eigenvalues --    1.29473   1.29690   1.29848   1.30021   1.30446
 Alpha virt. eigenvalues --    1.30587   1.30667   1.30727   1.31185   1.31278
 Alpha virt. eigenvalues --    1.31405   1.31870   1.32185   1.32437   1.32546
 Alpha virt. eigenvalues --    1.32807   1.32865   1.33079   1.33311   1.33728
 Alpha virt. eigenvalues --    1.34431   1.34574   1.36563   1.36748   1.37750
 Alpha virt. eigenvalues --    1.38496   1.38977   1.40750   1.41473   1.42389
 Alpha virt. eigenvalues --    1.42999   1.43537   1.43970   1.44733   1.45750
 Alpha virt. eigenvalues --    1.46196   1.46566   1.47133   1.47768   1.47999
 Alpha virt. eigenvalues --    1.48654   1.49199   1.50218   1.50647   1.50692
 Alpha virt. eigenvalues --    1.51421   1.51752   1.51843   1.52028   1.52733
 Alpha virt. eigenvalues --    1.53596   1.57559   1.68114   1.73976   1.75370
 Alpha virt. eigenvalues --    1.76256   1.76435   1.76515   1.76565   1.76655
 Alpha virt. eigenvalues --    1.76769   1.76991   1.77136   1.77543   1.77760
 Alpha virt. eigenvalues --    1.78069   1.78299   1.78679   1.78861   1.83010
 Alpha virt. eigenvalues --    1.83347   1.85873   1.85903   1.86248   1.86257
 Alpha virt. eigenvalues --    1.86783   1.88234   1.89715   1.90212   1.91923
 Alpha virt. eigenvalues --    1.92093   1.92216   1.92616   1.92749   1.92962
 Alpha virt. eigenvalues --    1.93483   1.93946   1.94078   1.94170   1.94459
 Alpha virt. eigenvalues --    1.94823   1.95610   1.96394   1.96498   1.96670
 Alpha virt. eigenvalues --    1.98154   1.98159   1.98577   1.98799   2.00947
 Alpha virt. eigenvalues --    2.02229   2.03071   2.03196   2.03519   2.04262
 Alpha virt. eigenvalues --    2.05056   2.06023   2.07634   2.07915   2.08235
 Alpha virt. eigenvalues --    2.08954   2.09743   2.10423   2.10480   2.11214
 Alpha virt. eigenvalues --    2.11713   2.12081   2.13870   2.14686   2.14707
 Alpha virt. eigenvalues --    2.16088   2.16570   2.17388   2.17898   2.18144
 Alpha virt. eigenvalues --    2.18188   2.18642   2.19849   2.20788   2.21396
 Alpha virt. eigenvalues --    2.21849   2.22047   2.22687   2.23441   2.23809
 Alpha virt. eigenvalues --    2.24528   2.24890   2.25996   2.27102   2.27609
 Alpha virt. eigenvalues --    2.29124   2.29651   2.30773   2.32226   2.32318
 Alpha virt. eigenvalues --    2.33706   2.34942   2.35231   2.36366   2.37334
 Alpha virt. eigenvalues --    2.37809   2.38284   2.41155   2.41590   2.41599
 Alpha virt. eigenvalues --    2.44097   2.44802   2.45040   2.45112   2.45553
 Alpha virt. eigenvalues --    2.46398   2.46556   2.47167   2.47555   2.48259
 Alpha virt. eigenvalues --    2.48366   2.48711   2.48756   2.49252   2.49534
 Alpha virt. eigenvalues --    2.50335   2.50620   2.50716   2.51555   2.51775
 Alpha virt. eigenvalues --    2.52072   2.52195   2.52754   2.53160   2.53478
 Alpha virt. eigenvalues --    2.54207   2.54354   2.55327   2.55362   2.55883
 Alpha virt. eigenvalues --    2.56530   2.57294   2.57766   2.58135   2.58377
 Alpha virt. eigenvalues --    2.58803   2.59514   2.59604   2.60399   2.60774
 Alpha virt. eigenvalues --    2.60818   2.61625   2.62438   2.62987   2.63342
 Alpha virt. eigenvalues --    2.63739   2.63822   2.64878   2.65624   2.66415
 Alpha virt. eigenvalues --    2.67076   2.67274   2.67726   2.67743   2.68285
 Alpha virt. eigenvalues --    2.68726   2.69201   2.69645   2.69770   2.69905
 Alpha virt. eigenvalues --    2.70516   2.70656   2.70724   2.71399   2.71719
 Alpha virt. eigenvalues --    2.71871   2.73318   2.74162   2.74673   2.77375
 Alpha virt. eigenvalues --    2.78941   2.79801   2.80893   2.82733   2.83813
 Alpha virt. eigenvalues --    2.86209   2.86602   2.86755   2.88276   2.89006
 Alpha virt. eigenvalues --    2.90159   2.91319   2.91440   2.91881   2.92065
 Alpha virt. eigenvalues --    2.92466   2.92977   2.94029   2.94282   2.95145
 Alpha virt. eigenvalues --    2.95552   2.96742   2.96886   2.97424   2.98381
 Alpha virt. eigenvalues --    2.99252   2.99537   2.99744   2.99893   3.00086
 Alpha virt. eigenvalues --    3.01536   3.03122   3.10658   3.16056   3.20290
 Alpha virt. eigenvalues --    3.28020   3.28030   3.33026   3.33241   3.34004
 Alpha virt. eigenvalues --    3.34995   3.35358   3.35445   3.35590   3.36547
 Alpha virt. eigenvalues --    3.37208   3.38583   3.39899   3.41264   3.43413
 Alpha virt. eigenvalues --    3.44651   3.48156   3.49115   3.52651   3.53157
 Alpha virt. eigenvalues --    3.53938   3.54282   3.56013   3.56513   3.59665
 Alpha virt. eigenvalues --    3.61010   3.61384   3.62423   3.64882   3.65876
 Alpha virt. eigenvalues --    3.66422   3.66812   3.70961   3.71039   3.72897
 Alpha virt. eigenvalues --    3.79253   4.10825   4.12259   4.13568   4.13737
 Alpha virt. eigenvalues --    4.13762   4.13945   4.14055   4.14340   4.14705
 Alpha virt. eigenvalues --    4.15184   4.15821   4.16710   4.17537   4.18824
 Alpha virt. eigenvalues --    4.20292   4.21148   4.25698   4.25901   4.30516
 Alpha virt. eigenvalues --    4.31959   4.35387   4.38547   4.41845   4.45664
 Alpha virt. eigenvalues --    4.49522   4.53456   4.57390   4.61250   4.64926
 Alpha virt. eigenvalues --    4.68105   4.71083   4.73469   4.74937   4.76612
          Condensed to atoms (all electrons):
 Mulliken charges:
               1
     1  C   -0.251905
     2  C   -0.033688
     3  C   -0.077712
     4  C   -0.077008
     5  C   -0.080491
     6  C   -0.079503
     7  C   -0.078891
     8  C   -0.080289
     9  C   -0.081991
    10  C   -0.076956
    11  C   -0.055862
    12  C   -0.106499
    13  C   -0.076180
    14  C   -0.085063
    15  C   -0.082027
    16  C   -0.079473
    17  C   -0.079462
    18  C   -0.082079
    19  C   -0.085113
    20  C   -0.076086
    21  C   -0.106413
    22  C   -0.055832
    23  C   -0.077077
    24  C   -0.081855
    25  C   -0.080488
    26  C   -0.078706
    27  C   -0.080249
    28  C   -0.079513
    29  C   -0.079338
    30  C   -0.080585
    31  C   -0.076954
    32  C   -0.077784
    33  C   -0.033649
    34  C   -0.251958
    35  H    0.095566
    36  H    0.083756
    37  H    0.081707
    38  H    0.080988
    39  H    0.080795
    40  H    0.080298
    41  H    0.080581
    42  H    0.080381
    43  H    0.080587
    44  H    0.080793
    45  H    0.081856
    46  H    0.080229
    47  H    0.080205
    48  H    0.079499
    49  H    0.080684
    50  H    0.080183
    51  H    0.080179
    52  H    0.080689
    53  H    0.079521
    54  H    0.080185
    55  H    0.080195
    56  H    0.081869
    57  H    0.080731
    58  H    0.080573
    59  H    0.080258
    60  H    0.080488
    61  H    0.080063
    62  H    0.080433
    63  H    0.080162
    64  H    0.080676
    65  H    0.080910
    66  H    0.081628
    67  H    0.083694
    68  H    0.095513
    69  H    0.095368
    70  H    0.095438
 Sum of Mulliken charges =  -0.00000
 Mulliken charges with hydrogens summed into heavy atoms:
               1
     1  C   -0.060901
     2  C    0.050067
     3  C    0.003995
     4  C    0.003981
     5  C    0.000303
     6  C    0.000795
     7  C    0.001690
     8  C    0.000092
     9  C   -0.001403
    10  C    0.003837
    11  C    0.025994
    12  C   -0.026270
    13  C    0.004025
    14  C   -0.005563
    15  C   -0.001342
    16  C    0.000709
    17  C    0.000717
    18  C   -0.001390
    19  C   -0.005592
    20  C    0.004099
    21  C   -0.026218
    22  C    0.026037
    23  C    0.003654
    24  C   -0.001282
    25  C   -0.000230
    26  C    0.001782
    27  C   -0.000187
    28  C    0.000920
    29  C    0.000824
    30  C    0.000091
    31  C    0.003956
    32  C    0.003844
    33  C    0.050045
    34  C   -0.061078
 Electronic spatial extent (au):  <R**2>=         113301.1084
 Charge=              0.0000 electrons
 Dipole moment (field-independent basis, Debye):
    X=             -0.0328    Y=             -0.2075    Z=              0.0337  Tot=              0.2128
 Quadrupole moment (field-independent basis, Debye-Ang):
   XX=           -193.1566   YY=           -179.7661   ZZ=           -220.6477
   XY=              0.1018   XZ=              0.4094   YZ=             -2.0976
 Traceless Quadrupole moment (field-independent basis, Debye-Ang):
   XX=              4.7002   YY=             18.0907   ZZ=            -22.7909
   XY=              0.1018   XZ=              0.4094   YZ=             -2.0976
 Octapole moment (field-independent basis, Debye-Ang**2):
  XXX=            -34.0059  YYY=             -8.3028  ZZZ=              0.0518  XYY=             -0.0830
  XXY=           -137.5587  XXZ=             16.1467  XZZ=              3.1784  YZZ=             -0.9940
  YYZ=              0.4874  XYZ=            -34.7948
 Hexadecapole moment (field-independent basis, Debye-Ang**3):
 XXXX=        -148137.0927 YYYY=          -3486.8826 ZZZZ=           -252.6464 XXXY=             73.6067
 XXXZ=            112.8094 YYYX=             13.1531 YYYZ=            -18.2995 ZZZX=              3.8068
 ZZZY=             -2.2384 XXYY=         -24236.8251 XXZZ=         -28505.2208 YYZZ=           -743.8626
 XXYZ=           -233.6244 YYXZ=            -79.0224 ZZXY=              3.9630
 N-N= 2.242770686488D+03 E-N=-7.532053497081D+03  KE= 1.303901514402D+03
 Calling FoFJK, ICntrl=      2127 FMM=T ISym2X=0 I1Cent= 0 IOpClX= 0 NMat=1 NMatS=1 NMatT=0.
 ***** Axes restored to original set *****
 -------------------------------------------------------------------
 Center     Atomic                   Forces (Hartrees/Bohr)
 Number     Number              X              Y              Z
 -------------------------------------------------------------------
      1        6          -0.008747464    0.003333785   -0.000164894
      2        6           0.014681930   -0.015705383    0.012730112
      3        6          -0.024836838    0.017359358   -0.010160669
      4        6           0.028612723   -0.018984551    0.010416880
      5        6          -0.030426536    0.018591439   -0.008986244
      6        6           0.031561996   -0.019099521    0.008984963
      7        6          -0.032169389    0.018912141   -0.008234055
      8        6           0.033003708   -0.019134789    0.007915222
      9        6          -0.032893627    0.018752480   -0.007174281
     10        6           0.034970971   -0.018575515    0.005752335
     11        6          -0.030383366    0.020789249   -0.010894937
     12        6           0.033770775   -0.012311042   -0.003170157
     13        6          -0.030069234    0.012356557    0.001115640
     14        6           0.031132372   -0.011576843   -0.002695915
     15        6          -0.030577088    0.014329993   -0.001579574
     16        6           0.029982731   -0.014794366    0.001277109
     17        6          -0.031009712    0.011970124    0.003625937
     18        6           0.031460157   -0.011909901   -0.003397285
     19        6          -0.030222863    0.014126588   -0.000994871
     20        6           0.029744213   -0.013263145   -0.000869292
     21        6          -0.032546112    0.015779970   -0.001287723
     22        6           0.035156759   -0.007973859   -0.013364796
     23        6          -0.037467345    0.012125360    0.007879797
     24        6           0.035995038   -0.010725972   -0.009425910
     25        6          -0.036497782    0.010452116    0.009995459
     26        6           0.035890176   -0.010008900   -0.010381105
     27        6          -0.035877677    0.009622600    0.010788791
     28        6           0.035291962   -0.009306651   -0.010963709
     29        6          -0.034978639    0.008729714    0.011583326
     30        6           0.033879484   -0.008338096   -0.011483100
     31        6          -0.032676430    0.006993843    0.012960811
     32        6           0.028844585   -0.005633516   -0.012514344
     33        6          -0.019898911    0.000522681    0.015069104
     34        6           0.008715609   -0.003407434   -0.000497836
     35        1          -0.002357077    0.000476086    0.000504168
     36        1           0.005055309   -0.000289816   -0.001894147
     37        1          -0.003351084    0.000630830    0.000800487
     38        1           0.003158120   -0.000530091   -0.000742936
     39        1          -0.003139139    0.000577172    0.000841950
     40        1           0.003184958   -0.000534725   -0.000756284
     41        1          -0.003134203    0.000584429    0.000924622
     42        1           0.003184707   -0.000542688   -0.000776907
     43        1          -0.003124532    0.000572706    0.001047023
     44        1           0.003255022   -0.000563945   -0.000849955
     45        1          -0.001922487   -0.000857916    0.002174333
     46        1           0.000090152    0.000408869   -0.000349139
     47        1           0.003822333    0.000133648   -0.002241532
     48        1          -0.001944268   -0.000569282    0.002150794
     49        1           0.001186247   -0.001967204    0.002086163
     50        1          -0.002350969    0.002591511   -0.002296828
     51        1           0.003398283    0.000185140   -0.002431327
     52        1          -0.002058159   -0.000437470    0.002240796
     53        1           0.001036767   -0.001809533    0.002096211
     54        1          -0.002840169    0.002622690   -0.002278101
     55        1           0.000128369    0.000128881   -0.000446283
     56        1           0.001003610   -0.001708321    0.002241976
     57        1          -0.002842769    0.001697329   -0.000775510
     58        1           0.002686587   -0.001764008    0.000882895
     59        1          -0.002803513    0.001609441   -0.000730442
     60        1           0.002727837   -0.001700397    0.000798743
     61        1          -0.002821801    0.001582105   -0.000720403
     62        1           0.002760226   -0.001657198    0.000762893
     63        1          -0.002819127    0.001564189   -0.000721274
     64        1           0.002776810   -0.001610124    0.000728192
     65        1          -0.002794466    0.001548840   -0.000724841
     66        1           0.002986672   -0.001668102    0.000723031
     67        1          -0.004177097    0.002785155   -0.001984660
     68        1           0.002121075   -0.001147862    0.000455079
     69        1           0.000349378   -0.002181566    0.003915348
     70        1          -0.001847779   -0.002157283    0.003491075
 -------------------------------------------------------------------
 Cartesian Forces:  Max     0.037467345 RMS     0.014083189

 GradGradGradGradGradGradGradGradGradGradGradGradGradGradGradGradGradGrad
 Berny optimization.
 FormGI is forming the generalized inverse of G from B-inverse, IUseBI=4.
 Internal  Forces:  Max     0.022692814 RMS     0.007579550
 Search for a local minimum.
 Step number   1 out of a maximum of  313
 All quantities printed in internal units (Hartrees-Bohrs-Radians)
 Mixed Optimization -- RFO/linear search
 Second derivative matrix not updated -- first step.
 ITU=  0
     Eigenvalues ---    0.00879   0.00880   0.00934   0.00947   0.00949
     Eigenvalues ---    0.01042   0.01042   0.01053   0.01054   0.01054
     Eigenvalues ---    0.01054   0.01054   0.01055   0.01055   0.01063
     Eigenvalues ---    0.01064   0.01854   0.01855   0.01855   0.01856
     Eigenvalues ---    0.01891   0.01891   0.01898   0.01899   0.01908
     Eigenvalues ---    0.01909   0.01958   0.01958   0.01969   0.01969
     Eigenvalues ---    0.01974   0.01974   0.01976   0.01976   0.01976
     Eigenvalues ---    0.01977   0.01977   0.01977   0.01977   0.01977
     Eigenvalues ---    0.01977   0.01977   0.01977   0.01977   0.01982
     Eigenvalues ---    0.01982   0.01997   0.01998   0.02748   0.02748
     Eigenvalues ---    0.02749   0.02749   0.02822   0.02823   0.02887
     Eigenvalues ---    0.02887   0.02890   0.02890   0.02890   0.02891
     Eigenvalues ---    0.02891   0.02891   0.02891   0.02950   0.02950
     Eigenvalues ---    0.02950   0.02950   0.16000   0.16000   0.16000
     Eigenvalues ---    0.16000   0.16000   0.16000   0.16000   0.16000
     Eigenvalues ---    0.16000   0.16000   0.16000   0.16000   0.16000
     Eigenvalues ---    0.16000   0.16000   0.16000   0.16000   0.16000
     Eigenvalues ---    0.16000   0.16000   0.16000   0.16000   0.16000
     Eigenvalues ---    0.16000   0.16000   0.16000   0.16000   0.16000
     Eigenvalues ---    0.16000   0.16000   0.16000   0.16000   0.16000
     Eigenvalues ---    0.16000   0.16000   0.16000   0.22000   0.22000
     Eigenvalues ---    0.22000   0.22000   0.22000   0.22000   0.22000
     Eigenvalues ---    0.22000   0.22000   0.22000   0.22000   0.22000
     Eigenvalues ---    0.22000   0.22000   0.22000   0.22000   0.22000
     Eigenvalues ---    0.22000   0.22000   0.22000   0.22000   0.22000
     Eigenvalues ---    0.22000   0.22000   0.22000   0.22000   0.22000
     Eigenvalues ---    0.22000   0.22000   0.22000   0.22000   0.22000
     Eigenvalues ---    0.33290   0.33299   0.33750   0.33860   0.33874
     Eigenvalues ---    0.34671   0.34672   0.34766   0.34770   0.34772
     Eigenvalues ---    0.34776   0.34778   0.34784   0.34787   0.34855
     Eigenvalues ---    0.34858   0.35048   0.35054   0.35059   0.35059
     Eigenvalues ---    0.35064   0.35065   0.35067   0.35069   0.35070
     Eigenvalues ---    0.35085   0.35089   0.35090   0.35093   0.35096
     Eigenvalues ---    0.35097   0.35101   0.35104   0.35108   0.35150
     Eigenvalues ---    0.35159   0.35182   0.35183   0.35279   0.35282
     Eigenvalues ---    0.35366   0.35366   0.35568   0.35579   0.35703
     Eigenvalues ---    0.35705   0.35736   0.35743   0.35887   0.35890
     Eigenvalues ---    0.35896   0.35906   0.54987   0.54988   0.54995
     Eigenvalues ---    0.54996   0.56197   0.56211   0.57275   0.57291
     Eigenvalues ---    0.57330   0.57333   0.57338   0.57347   0.57348
     Eigenvalues ---    0.57349   0.57353   0.58359   0.58361
 RFO step:  Lambda=-4.80930964D-02 EMin= 8.78951305D-03
 Linear search not attempted -- first point.
 Maximum step size (   0.300) exceeded in Quadratic search.
    -- Step size scaled by   0.780
 Iteration  1 RMS(Cart)=  0.19215590 RMS(Int)=  0.00081903
 Iteration  2 RMS(Cart)=  0.00627843 RMS(Int)=  0.00000424
 Iteration  3 RMS(Cart)=  0.00000526 RMS(Int)=  0.00000410
 Iteration  4 RMS(Cart)=  0.00000000 RMS(Int)=  0.00000410
 Variable       Old X    -DE/DX   Delta X   Delta X   Delta X     New X
                                 (Linear)    (Quad)   (Total)
    R1        2.52263   0.01197   0.00000   0.01478   0.01478   2.53742
    R2        2.05220  -0.00014   0.00000  -0.00027  -0.00027   2.05193
    R3        2.05085   0.00014   0.00000   0.00026   0.00026   2.05112
    R4        2.79210  -0.01427   0.00000  -0.02806  -0.02806   2.76404
    R5        2.05378   0.00058   0.00000   0.00114   0.00114   2.05492
    R6        2.53111   0.01892   0.00000   0.02374   0.02374   2.55485
    R7        2.05529  -0.00020   0.00000  -0.00040  -0.00040   2.05489
    R8        2.79327  -0.01810   0.00000  -0.03566  -0.03566   2.75761
    R9        2.05561  -0.00017   0.00000  -0.00033  -0.00033   2.05528
   R10        2.53116   0.02123   0.00000   0.02664   0.02664   2.55780
   R11        2.05519  -0.00013   0.00000  -0.00026  -0.00026   2.05493
   R12        2.79340  -0.01924   0.00000  -0.03790  -0.03790   2.75550
   R13        2.05563  -0.00019   0.00000  -0.00036  -0.00036   2.05527
   R14        2.53118   0.02212   0.00000   0.02776   0.02776   2.55894
   R15        2.05511  -0.00010   0.00000  -0.00020  -0.00020   2.05490
   R16        2.79350  -0.01987   0.00000  -0.03916  -0.03916   2.75435
   R17        2.05570  -0.00021   0.00000  -0.00042  -0.00042   2.05528
   R18        2.53164   0.02252   0.00000   0.02828   0.02828   2.55992
   R19        2.05500  -0.00005   0.00000  -0.00010  -0.00010   2.05490
   R20        2.79511  -0.02136   0.00000  -0.04219  -0.04219   2.75292
   R21        2.05580  -0.00025   0.00000  -0.00048  -0.00048   2.05532
   R22        2.54084   0.01523   0.00000   0.01947   0.01947   2.56031
   R23        2.04744   0.00189   0.00000   0.00365   0.00365   2.05109
   R24        2.80867  -0.01815   0.00000  -0.03660  -0.03660   2.77207
   R25        2.05418   0.00050   0.00000   0.00098   0.00098   2.05516
   R26        2.55136   0.00606   0.00000   0.00790   0.00790   2.55926
   R27        2.04245   0.00394   0.00000   0.00755   0.00755   2.05000
   R28        2.81830  -0.02072   0.00000  -0.04241  -0.04241   2.77589
   R29        2.04548   0.00293   0.00000   0.00564   0.00564   2.05112
   R30        2.55144   0.00640   0.00000   0.00835   0.00835   2.55979
   R31        2.04486   0.00305   0.00000   0.00586   0.00586   2.05072
   R32        2.81055  -0.01906   0.00000  -0.03855  -0.03855   2.77200
   R33        2.04253   0.00383   0.00000   0.00734   0.00734   2.04988
   R34        2.55143   0.00639   0.00000   0.00833   0.00833   2.55976
   R35        2.04259   0.00382   0.00000   0.00731   0.00731   2.04990
   R36        2.81845  -0.02078   0.00000  -0.04253  -0.04253   2.77592
   R37        2.04496   0.00301   0.00000   0.00580   0.00580   2.05076
   R38        2.55137   0.00610   0.00000   0.00795   0.00795   2.55932
   R39        2.04545   0.00294   0.00000   0.00565   0.00565   2.05111
   R40        2.80843  -0.01814   0.00000  -0.03656  -0.03656   2.77187
   R41        2.04229   0.00400   0.00000   0.00765   0.00765   2.04995
   R42        2.54071   0.01537   0.00000   0.01964   0.01964   2.56035
   R43        2.05432   0.00046   0.00000   0.00090   0.00090   2.05522
   R44        2.79512  -0.02144   0.00000  -0.04234  -0.04234   2.75278
   R45        2.04762   0.00184   0.00000   0.00355   0.00355   2.05117
   R46        2.53151   0.02269   0.00000   0.02850   0.02850   2.56001
   R47        2.05598  -0.00030   0.00000  -0.00059  -0.00059   2.05539
   R48        2.79356  -0.02003   0.00000  -0.03947  -0.03947   2.75409
   R49        2.05507  -0.00008   0.00000  -0.00016  -0.00016   2.05491
   R50        2.53103   0.02247   0.00000   0.02819   0.02819   2.55922
   R51        2.05588  -0.00027   0.00000  -0.00053  -0.00053   2.05535
   R52        2.79347  -0.01960   0.00000  -0.03861  -0.03861   2.75485
   R53        2.05517  -0.00013   0.00000  -0.00025  -0.00025   2.05492
   R54        2.53098   0.02207   0.00000   0.02768   0.02768   2.55867
   R55        2.05580  -0.00024   0.00000  -0.00048  -0.00048   2.05532
   R56        2.79337  -0.01913   0.00000  -0.03769  -0.03769   2.75568
   R57        2.05525  -0.00014   0.00000  -0.00028  -0.00028   2.05497
   R58        2.53102   0.02124   0.00000   0.02665   0.02665   2.55767
   R59        2.05571  -0.00021   0.00000  -0.00041  -0.00041   2.05530
   R60        2.79323  -0.01805   0.00000  -0.03555  -0.03555   2.75767
   R61        2.05530  -0.00016   0.00000  -0.00032  -0.00032   2.05498
   R62        2.53104   0.01894   0.00000   0.02376   0.02376   2.55480
   R63        2.05566  -0.00018   0.00000  -0.00036  -0.00036   2.05530
   R64        2.79206  -0.01425   0.00000  -0.02801  -0.02801   2.76405
   R65        2.05537  -0.00023   0.00000  -0.00045  -0.00045   2.05492
   R66        2.52261   0.01198   0.00000   0.01479   0.01479   2.53740
   R67        2.05380   0.00058   0.00000   0.00113   0.00113   2.05493
   R68        2.05225  -0.00015   0.00000  -0.00030  -0.00030   2.05195
   R69        2.05085   0.00014   0.00000   0.00027   0.00027   2.05112
    A1        2.11477   0.00028   0.00000   0.00105   0.00105   2.11583
    A2        2.09359   0.00447   0.00000   0.01676   0.01676   2.11035
    A3        2.07483  -0.00475   0.00000  -0.01781  -0.01781   2.05701
    A4        2.11462   0.01175   0.00000   0.03419   0.03419   2.14881
    A5        2.07577  -0.00036   0.00000   0.00359   0.00359   2.07936
    A6        2.09280  -0.01140   0.00000  -0.03778  -0.03778   2.05502
    A7        2.10906   0.01236   0.00000   0.03596   0.03596   2.14502
    A8        2.08245  -0.00977   0.00000  -0.03145  -0.03145   2.05100
    A9        2.09167  -0.00259   0.00000  -0.00451  -0.00451   2.08716
   A10        2.11322   0.01236   0.00000   0.03595   0.03595   2.14917
   A11        2.08912  -0.00281   0.00000  -0.00533  -0.00533   2.08379
   A12        2.08084  -0.00955   0.00000  -0.03062  -0.03062   2.05022
   A13        2.10735   0.01292   0.00000   0.03759   0.03759   2.14494
   A14        2.08403  -0.00985   0.00000  -0.03149  -0.03149   2.05254
   A15        2.09180  -0.00307   0.00000  -0.00609  -0.00609   2.08570
   A16        2.11555   0.01193   0.00000   0.03472   0.03472   2.15027
   A17        2.08819  -0.00256   0.00000  -0.00460  -0.00460   2.08359
   A18        2.07944  -0.00937   0.00000  -0.03011  -0.03011   2.04932
   A19        2.10482   0.01338   0.00000   0.03892   0.03892   2.14374
   A20        2.08551  -0.01010   0.00000  -0.03223  -0.03223   2.05328
   A21        2.09283  -0.00328   0.00000  -0.00668  -0.00668   2.08615
   A22        2.11818   0.01150   0.00000   0.03345   0.03345   2.15163
   A23        2.08700  -0.00234   0.00000  -0.00395  -0.00395   2.08305
   A24        2.07798  -0.00916   0.00000  -0.02949  -0.02949   2.04849
   A25        2.10225   0.01364   0.00000   0.03967   0.03967   2.14192
   A26        2.08671  -0.01025   0.00000  -0.03270  -0.03270   2.05401
   A27        2.09419  -0.00338   0.00000  -0.00695  -0.00695   2.08724
   A28        2.12157   0.01053   0.00000   0.03062   0.03062   2.15219
   A29        2.08459  -0.00177   0.00000  -0.00220  -0.00220   2.08239
   A30        2.07699  -0.00876   0.00000  -0.02841  -0.02841   2.04859
   A31        2.09385   0.01265   0.00000   0.03679   0.03679   2.13064
   A32        2.06960  -0.00874   0.00000  -0.02745  -0.02745   2.04215
   A33        2.11969  -0.00390   0.00000  -0.00931  -0.00931   2.11037
   A34        2.19278   0.00744   0.00000   0.02164   0.02164   2.21442
   A35        2.06906  -0.00356   0.00000  -0.01020  -0.01020   2.05886
   A36        2.02130  -0.00388   0.00000  -0.01142  -0.01142   2.00988
   A37        2.18479   0.00525   0.00000   0.01527   0.01527   2.20006
   A38        1.99561  -0.00055   0.00000   0.00013   0.00013   1.99574
   A39        2.10278  -0.00470   0.00000  -0.01540  -0.01540   2.08738
   A40        2.17666   0.00851   0.00000   0.02475   0.02475   2.20141
   A41        2.09445  -0.00464   0.00000  -0.01383  -0.01383   2.08062
   A42        2.01207  -0.00387   0.00000  -0.01092  -0.01092   2.00115
   A43        2.17523   0.00854   0.00000   0.02485   0.02485   2.20008
   A44        2.01123  -0.00366   0.00000  -0.01015  -0.01015   2.00108
   A45        2.09669  -0.00488   0.00000  -0.01468  -0.01469   2.08201
   A46        2.18934   0.00547   0.00000   0.01591   0.01591   2.20524
   A47        2.09981  -0.00445   0.00000  -0.01439  -0.01439   2.08542
   A48        1.99401  -0.00101   0.00000  -0.00151  -0.00151   1.99251
   A49        2.18964   0.00541   0.00000   0.01574   0.01574   2.20538
   A50        1.99366  -0.00096   0.00000  -0.00132  -0.00132   1.99234
   A51        2.09989  -0.00445   0.00000  -0.01442  -0.01442   2.08547
   A52        2.17534   0.00852   0.00000   0.02479   0.02479   2.20013
   A53        2.09670  -0.00487   0.00000  -0.01468  -0.01468   2.08202
   A54        2.01114  -0.00365   0.00000  -0.01010  -0.01010   2.00103
   A55        2.17615   0.00861   0.00000   0.02505   0.02505   2.20121
   A56        2.01271  -0.00396   0.00000  -0.01122  -0.01122   2.00149
   A57        2.09431  -0.00465   0.00000  -0.01382  -0.01382   2.08048
   A58        2.18495   0.00518   0.00000   0.01506   0.01506   2.20001
   A59        2.10284  -0.00467   0.00000  -0.01534  -0.01534   2.08750
   A60        1.99539  -0.00050   0.00000   0.00028   0.00028   1.99567
   A61        2.19360   0.00728   0.00000   0.02118   0.02118   2.21478
   A62        2.02061  -0.00376   0.00000  -0.01105  -0.01105   2.00956
   A63        2.06897  -0.00352   0.00000  -0.01012  -0.01012   2.05885
   A64        2.09301   0.01277   0.00000   0.03714   0.03714   2.13015
   A65        2.11999  -0.00397   0.00000  -0.00951  -0.00951   2.11048
   A66        2.07018  -0.00880   0.00000  -0.02763  -0.02763   2.04256
   A67        2.12311   0.01031   0.00000   0.03000   0.03000   2.15311
   A68        2.07602  -0.00864   0.00000  -0.02805  -0.02805   2.04798
   A69        2.08404  -0.00167   0.00000  -0.00195  -0.00195   2.08210
   A70        2.10102   0.01380   0.00000   0.04015   0.04015   2.14117
   A71        2.09481  -0.00348   0.00000  -0.00724  -0.00724   2.08757
   A72        2.08735  -0.01033   0.00000  -0.03291  -0.03291   2.05444
   A73        2.12000   0.01124   0.00000   0.03271   0.03271   2.15271
   A74        2.07687  -0.00902   0.00000  -0.02908  -0.02908   2.04779
   A75        2.08631  -0.00223   0.00000  -0.00363  -0.00363   2.08268
[...]
 00264,-0.00000471,-0.00000471,0.00000358,0.00000188,0.00000123,0.00000
 061,0.00001452,0.00000167,0.00003668,-0.00001064,-0.00000193,0.0000701
 5,0.00031473,-0.00000928,0.00075316,0.00013889,-0.00024337,0.00469057,
 0.00489407,0.00623340,0.04050610,0.06935428,-0.00000010,0.,-0.00000005
 ,0.00000006,-0.00000006,0.00000002,-0.00000011,0.00000007,-0.00000006,
 0.00000011,-0.00000009,0.,-0.00000019,0.00000008,-0.00000006,0.0000002
 0,-0.00000012,-0.00000001,-0.00000030,0.00000010,-0.00000003,0.0000003
 3,-0.00000015,-0.00000005,-0.00000046,0.00000012,0.00000002,0.00000054
 ,-0.00000017,-0.00000014,-0.00000066,0.00000008,0.00000017,0.00000087,
 -0.00000021,-0.00000030,-0.00000081,0.00000080,-0.00000068,0.00000125,
 -0.00000088,0.00000030,-0.00000185,0.00000006,0.00000081,0.00000221,-0
 .00000041,-0.00000083,-0.00000206,0.00000183,-0.00000158,0.00000301,-0
 .00000216,0.00000097,-0.00000436,0.00000020,0.00000210,0.00000538,-0.0
 0000106,-0.00000228,-0.00000521,0.00000435,-0.00000381,0.00000743,-0.0
 0000463,0.00000280,-0.00000875,0.00000659,-0.00000545,0.00001181,-0.00
 001045,0.00000226,-0.00001517,0.00001220,-0.00000924,0.00002780,-0.000
 00487,0.00001305,-0.00003186,0.00002099,-0.00002057,0.00003288,-0.0000
 7022,-0.00001847,-0.00005947,0.00006725,-0.00002689,0.00014197,0.00007
 502,0.00011575,-0.00048939,0.00004806,0.00016683,0.00045164,-0.0043663
 1,-0.00101681,0.01207428,0.00716293,-0.01383532,0.11188057,0.08652121,
 -0.23550506,0.00000001,0.,0.00000003,0.,0.,0.00000003,0.,0.,0.00000004
 ,0.00000001,0.,0.00000003,0.00000001,0.,0.00000005,0.00000002,0.,0.000
 00003,0.00000001,0.,0.00000006,0.00000002,0.,0.00000004,0.00000002,0.,
 0.00000007,0.00000003,0.,0.00000005,0.00000002,0.,0.00000008,0.0000000
 5,0.,0.00000005,-0.00000003,0.00000002,0.00000010,-0.00000007,0.000000
 04,0.00000011,0.00000006,0.,0.00000013,0.00000009,-0.00000001,0.000000
 09,-0.00000005,0.00000005,0.00000018,-0.00000010,0.00000010,0.00000020
 ,0.00000011,0.00000005,0.00000022,0.00000021,-0.00000001,0.00000017,-0
 .00000011,0.00000014,0.00000043,-0.00000015,0.00000019,0.00000043,-0.0
 0000007,-0.00000002,0.00000062,-0.00000032,0.00000039,0.00000079,0.000
 00022,0.00000056,0.00000159,-0.00000085,0.00000067,0.00000149,-0.00000
 158,-0.00000512,-0.00000015,-0.00000304,0.00000184,0.00000333,0.000005
 83,0.00000104,0.00001059,-0.00003328,0.00001395,0.00000345,0.00017050,
 -0.00000462,0.00023675,-0.00102658,0.00038856,0.00035318,-0.00051365,0
 .00633146,0.00168143,-0.12224786,-0.09799331,0.24804072,-0.00000481,0.
 00000231,-0.00000031,0.00000346,-0.00000474,0.00000390,-0.00000278,0.0
 0000413,-0.00000356,0.00000232,-0.00000491,0.00000470,-0.00000205,0.00
 000403,-0.00000384,0.00000205,-0.00000522,0.00000522,-0.00000178,0.000
 00416,-0.00000415,0.00000186,-0.00000561,0.00000574,-0.00000159,0.0000
 0434,-0.00000448,0.00000184,-0.00000593,0.00000634,-0.00000143,0.00000
 412,-0.00000437,0.00000230,-0.00000850,0.00000873,-0.00000249,0.000005
 89,-0.00000580,0.00000787,0.00000441,-0.00000937,-0.00000753,-0.000003
 05,0.00000753,0.00000523,-0.00000987,0.00000971,-0.00000570,0.00000927
 ,-0.00000909,0.00001253,0.00000271,-0.00001134,-0.00001339,-0.00000348
 ,0.00001278,0.00001140,-0.00001246,0.00001161,-0.00001248,0.00001463,-
 0.00001444,0.00001812,-0.00000394,-0.00000772,-0.00001893,0.00000633,0
 .00000268,0.00002531,-0.00000119,-0.00000615,-0.00002589,0.00000864,0.
 00000050,0.00002607,-0.00002477,-0.00002140,-0.00004055,0.00002101,-0.
 00000051,0.00008470,0.00007030,0.00003424,-0.00012343,0.00002710,-0.00
 000920,-0.00005540,-0.00032019,-0.00039705,-0.00053140,0.00013723,0.00
 027340,0.00229669,0.00401043,-0.00017710,-0.00909497,0.00242074,0.0047
 5392,-0.31119482,0.08774253,0.04462199,0.00000019,-0.00000005,-0.00000
 001,-0.00000019,0.00000074,-0.00000077,-0.00000002,0.00000012,-0.00000
 011,-0.00000034,0.00000088,-0.00000086,-0.00000002,0.00000020,-0.00000
 020,-0.00000040,0.00000100,-0.00000097,-0.00000003,0.00000028,-0.00000
 027,-0.00000047,0.00000114,-0.00000109,-0.00000004,0.00000037,-0.00000
 036,-0.00000055,0.00000131,-0.00000126,0.00000001,0.00000043,-0.000000
 53,-0.00000124,0.00000167,-0.00000134,0.00000074,-0.00000044,0.0000003
 7,-0.00000187,-0.00000009,0.00000123,0.00000075,0.00000002,-0.00000051
 ,-0.00000155,0.00000165,-0.00000127,0.00000073,-0.00000047,0.00000047,
 -0.00000218,-0.00000003,0.00000149,0.00000092,0.00000026,-0.00000076,-
 0.00000201,0.00000212,-0.00000171,0.00000069,-0.00000069,0.00000071,-0
 .00000214,-0.00000037,0.00000215,-0.00000047,-0.00000022,0.00000145,-0
 .00000266,-0.00000075,0.00000324,-0.00000123,-0.00000121,0.00000123,-0
 .00000287,-0.00000087,0.00000429,0.00000140,0.00000522,0.00000555,-0.0
 0000261,-0.00000226,0.00000550,-0.00000752,-0.00001980,-0.00001214,0.0
 0001033,-0.00000384,0.00001510,0.00001002,0.00007614,-0.00002998,0.000
 29150,-0.00021731,-0.00003558,0.00018106,-0.00193678,-0.00157341,-0.00
 831866,0.00469000,-0.00037110,0.32649120,0.00000356,-0.00000182,0.0000
 0019,-0.00000256,0.00000353,-0.00000296,0.00000204,-0.00000316,0.00000
 269,-0.00000168,0.00000367,-0.00000361,0.00000145,-0.00000313,0.000002
 96,-0.00000142,0.00000392,-0.00000407,0.00000118,-0.00000327,0.0000032
 7,-0.00000119,0.00000424,-0.00000456,0.00000092,-0.00000346,0.00000361
 ,-0.00000105,0.00000449,-0.00000512,0.00000064,-0.00000334,0.00000367,
 -0.00000120,0.00000639,-0.00000702,0.00000144,-0.00000404,0.00000389,-
 0.00000538,-0.00000413,0.00000754,0.00000467,0.00000205,-0.00000504,-0
 .00000256,0.00000744,-0.00000834,0.00000313,-0.00000600,0.00000578,-0.
 00000796,-0.00000394,0.00000975,0.00000755,0.00000224,-0.00000800,-0.0
 0000487,0.00000968,-0.00001081,0.00000613,-0.00000861,0.00000819,-0.00
 001053,-0.00000403,0.00000764,0.00000959,0.00000083,-0.00000702,-0.000
 00723,0.00000417,0.00001750,0.00001004,-0.00000065,-0.00001198,-0.0000
 2909,-0.00004904,-0.00000857,0.00002088,0.00000928,-0.00001383,0.00006
 851,0.00016652,0.00016923,0.00006428,-0.00004344,-0.00008603,-0.000360
 40,-0.00107697,-0.00033149,0.00091938,0.00015467,-0.00047386,0.0029130
 1,0.00542680,0.00752738,0.01954878,-0.00156316,-0.00369353,0.08539564,
 -0.06601771,-0.00129002,-0.00000013,0.00000008,0.00000003,0.00000015,-
 0.00000052,0.00000060,0.00000003,-0.00000005,0.00000010,0.00000027,-0.
 00000062,0.00000067,0.00000003,-0.00000009,0.00000017,0.00000032,-0.00
 000071,0.00000076,0.00000004,-0.00000014,0.00000023,0.00000038,-0.0000
 0081,0.00000086,0.00000005,-0.00000020,0.00000030,0.00000045,-0.000000
 94,0.00000100,0.00000002,-0.00000022,0.00000044,0.00000101,-0.00000122
 ,0.00000107,-0.00000056,0.00000043,-0.00000020,0.00000156,0.00000014,-
 0.00000088,-0.00000058,0.00000018,0.00000044,0.00000132,-0.00000119,0.
 00000104,-0.00000056,0.00000056,-0.00000023,0.00000197,0.00000015,-0.0
 0000108,-0.00000074,0.00000022,0.00000068,0.00000181,-0.00000151,0.000
 00141,-0.00000062,0.00000073,-0.00000043,0.00000209,0.00000062,-0.0000
 0155,0.00000077,0.00000134,-0.00000039,0.00000277,0.00000107,-0.000002
 45,0.00000009,-0.00000078,-0.00000223,0.00000397,0.00000206,-0.0000028
 9,0.00000644,0.00001486,0.00000766,0.00000456,0.00000221,-0.00000525,-
 0.00002035,-0.00004570,-0.00003000,0.00000851,0.00002267,-0.00000198,-
 0.00000605,0.00009278,0.00008269,0.00004347,-0.00014610,-0.00023739,-0
 .00210749,-0.00387980,-0.00328556,-0.00980243,0.00521994,0.00180382,-0
 .09668889,0.06171061,-0.00000242,0.00000117,-0.00000022,0.00000167,-0.
 00000239,0.00000199,-0.00000137,0.00000213,-0.00000190,0.00000105,-0.0
 0000252,0.00000246,-0.00000094,0.00000213,-0.00000214,0.00000083,-0.00
 000272,0.00000282,-0.00000070,0.00000225,-0.00000242,0.00000059,-0.000
 00296,0.00000320,-0.00000044,0.00000240,-0.00000274,0.00000037,-0.0000
 0315,0.00000366,-0.00000010,0.00000234,-0.00000290,0.00000027,-0.00000
 445,0.00000499,-0.00000064,0.00000224,-0.00000238,0.00000309,0.0000033
 2,-0.00000562,-0.00000241,-0.00000138,0.00000267,0.00000047,-0.0000052
 6,0.00000632,-0.00000121,0.00000297,-0.00000321,0.00000395,0.00000386,
 -0.00000788,-0.00000316,-0.00000163,0.00000371,0.00000037,-0.00000628,
 0.00000936,-0.00000174,0.00000294,-0.00000382,0.00000229,0.00000347,-0
 .00001007,-0.00000235,-0.00000491,0.00000921,0.00000299,0.00001371,-0.
 00000995,-0.00000158,-0.00001115,0.00001348,-0.00001497,-0.00001129,-0
 .00004019,-0.00000028,-0.00001394,0.00003017,0.00003723,0.00016807,0.0
 0002801,-0.00006566,-0.00006244,0.00006323,-0.00033662,-0.00035703,-0.
 00069074,-0.00091363,0.00002303,0.00077233,0.00149015,0.00682987,0.000
 29461,-0.02123867,0.00717908,0.00676840,0.04818235,-0.00277862,-0.0575
 1579,0.00000010,-0.00000002,0.00000001,-0.00000009,0.00000037,-0.00000
 037,0.,0.00000005,-0.00000003,-0.00000017,0.00000044,-0.00000041,0.,0.
 00000009,-0.00000006,-0.00000020,0.00000051,-0.00000047,0.,0.00000012,
 -0.00000009,-0.00000024,0.00000059,-0.00000053,0.,0.00000017,-0.000000
 12,-0.00000028,0.00000068,-0.00000062,0.00000003,0.00000020,-0.0000002
 1,-0.00000068,0.00000090,-0.00000066,0.00000044,-0.00000022,0.00000022
 ,-0.00000113,0.00000001,0.00000070,0.00000051,-0.00000006,-0.00000016,
 -0.00000092,0.00000094,-0.00000061,0.00000051,-0.00000025,0.00000029,-
 0.00000148,0.00000010,0.00000091,0.00000077,0.00000004,-0.00000017,-0.
 00000133,0.00000129,-0.00000082,0.00000061,-0.00000041,0.00000037,-0.0
 0000152,-0.00000003,0.00000143,0.,0.00000020,0.00000104,-0.00000212,-0
 .00000020,0.00000229,-0.00000075,-0.00000139,0.00000039,-0.00000303,0.
 00000018,0.00000347,0.00000372,0.00000844,0.00000745,-0.00000485,-0.00
 000091,0.00000513,-0.00001135,-0.00003034,-0.00002072,-0.00000363,0.00
 000587,0.00001832,0.00009478,0.00003055,0.00003829,-0.00043176,-0.0000
 7180,0.00009878,-0.00131335,-0.00339424,-0.00094217,0.02162105,-0.0073
 9617,-0.00019380,-0.04708200,-0.00012864,0.05126408,-0.28080661,0.1212
 8369,-0.01490053,-0.01618006,0.01232148,-0.00415841,0.00050634,0.00036
 004,0.00542620,-0.00072615,0.00075667,-0.00041220,-0.00020571,-0.00052
 806,-0.00001557,-0.00013234,0.00006060,-0.00004201,0.00005909,0.000029
 05,0.00009526,-0.00003916,0.00002443,-0.00000417,0.00001830,-0.0000390
 6,0.00000240,-0.00002510,0.00001380,-0.00000547,0.00002114,-0.00001472
 ,0.00001318,-0.00002593,-0.00000529,0.00002013,0.00002265,0.00000476,-
 0.00001951,-0.00001023,0.00001710,-0.00001645,0.00000936,-0.00001665,0
 .00001644,-0.00001325,-0.00000403,0.00001353,0.00001328,0.00000549,-0.
 00001609,-0.00000511,0.00000925,-0.00001073,0.00000410,-0.00001134,0.0
 0001455,-0.00000682,-0.00000299,0.00000910,0.00000865,0.00000552,-0.00
 001453,-0.00000442,-0.00000272,0.00000686,0.00000626,0.00000393,-0.000
 00980,-0.00000474,-0.00000258,0.00000694,0.00000593,0.00000332,-0.0000
 0896,-0.00000472,-0.00000220,0.00000632,0.00000577,0.00000284,-0.00000
 803,-0.00000475,-0.00000185,0.00000581,0.00000567,0.00000239,-0.000007
 27,-0.00000488,-0.00000152,0.00000538,0.00000569,0.00000192,-0.0000065
 6,-0.00000561,-0.00000098,0.00000503,0.00000663,0.00000087,-0.00000555
 ,-0.00000623,0.00000204,0.00000080,0.00041174,-0.00038900,0.00147319,0
 .00019991,-0.00194834,-0.00140595,0.00016975,-0.00007411,-0.00014994,0
 .00001539,-0.00000879,0.00007884,0.00001384,0.00001360,-0.00001058,-0.
 00000626,-0.00001753,-0.00001449,-0.00000153,0.00000648,-0.00000667,0.
 00000220,0.00000699,0.00000226,-0.00000218,0.00000523,-0.00000419,-0.0
 0000025,0.00000091,-0.00000222,-0.00000206,0.00000344,-0.00000280,0.00
 000166,0.00000057,-0.00000080,-0.00000436,-0.00000016,0.00000280,0.000
 00088,-0.00000119,0.00000109,-0.00000242,0.00000260,-0.00000187,0.0000
 0132,0.00000008,-0.00000059,-0.00000316,-0.00000009,0.00000205,0.00000
 078,-0.00000085,0.00000061,-0.00000197,0.00000203,-0.00000160,0.000001
 24,0.,-0.00000046,-0.00000269,-0.00000028,0.00000220,-0.00000036,-0.00
 000041,0.00000080,-0.00000164,-0.00000061,0.00000201,-0.00000034,-0.00
 000022,0.00000064,-0.00000142,-0.00000052,0.00000174,-0.00000027,-0.00
 000018,0.00000049,-0.00000123,-0.00000047,0.00000153,-0.00000020,-0.00
 000014,0.00000037,-0.00000107,-0.00000042,0.00000135,-0.00000014,-0.00
 000010,0.00000027,-0.00000093,-0.00000038,0.00000119,-0.00000009,-0.00
 000005,0.00000016,-0.00000069,-0.00000040,0.00000106,0.00000023,-0.000
 00009,0.00000001,-0.00000081,0.00000061,-0.00000039,0.29673003,0.12400
 956,-0.10367644,0.02228722,-0.00758042,0.00684974,0.00077444,0.0016355
 2,0.00597370,0.00594787,-0.00015124,0.00044850,-0.00018801,-0.00048229
 ,-0.00080590,-0.00051855,0.00001803,-0.00001628,-0.00007833,0.00003036
 ,0.00015993,0.00016084,0.00002533,0.00000891,-0.00001344,-0.00003517,-
 0.00003511,-0.00001965,0.00001245,-0.00000118,-0.00001028,-0.00000829,
 0.00000726,0.00001070,0.00000850,0.00000058,-0.00000553,-0.00000651,0.
 00000231,-0.00000289,0.00000325,-0.00000451,0.00000349,-0.00000413,0.0
 0000096,0.00000101,0.00000327,0.00000027,-0.00000258,-0.00000253,0.000
 00112,-0.00000024,0.00000127,-0.00000195,0.00000170,-0.00000166,0.0000
 0064,-0.00000014,0.00000138,0.00000017,-0.00000132,-0.00000128,0.00000
 016,0.00000041,0.00000064,-0.00000044,0.00000012,-0.00000084,0.0000001
 1,0.00000023,0.00000050,-0.00000026,-0.00000008,-0.00000067,0.00000001
 ,0.00000030,0.00000041,-0.00000014,-0.00000017,-0.00000056,-0.00000005
 ,0.00000035,0.00000036,-0.00000006,-0.00000024,-0.00000050,-0.00000009
 ,0.00000039,0.00000035,0.,-0.00000029,-0.00000048,-0.00000011,0.000000
 41,0.00000040,0.,-0.00000032,-0.00000053,-0.00000005,0.00000038,0.0000
 0043,-0.00000023,-0.00000007,0.01645059,-0.00501783,0.00017754,-0.0017
 4948,-0.00311736,-0.00368471,-0.00037743,0.00004212,-0.00019593,0.0000
 8665,0.00007256,0.00004127,-0.00000074,0.00001781,0.00000900,-0.000016
 88,-0.00004001,-0.00003199,-0.00000139,0.00000158,-0.00000037,0.000005
 62,0.00001201,0.00000980,-0.00000028,0.00000140,0.00000065,-0.00000035
 ,-0.00000123,-0.00000092,-0.00000011,0.00000049,0.00000029,0.00000048,
 0.00000069,0.00000072,0.00000010,0.00000038,0.,0.00000031,0.00000022,-
 0.00000013,-0.00000010,0.00000019,0.00000016,0.00000007,0.00000007,0.0
 0000009,0.00000014,0.00000018,-0.00000006,0.00000014,0.00000020,-0.000
 00003,0.00000002,0.00000004,0.00000012,0.,0.00000007,0.00000008,0.0000
 0016,0.00000011,-0.00000011,0.00000008,0.00000012,-0.00000005,0.000000
 13,0.00000010,-0.00000011,0.00000007,0.00000009,-0.00000005,0.00000012
 ,0.00000009,-0.00000010,0.00000006,0.00000008,-0.00000004,0.00000011,0
 .00000007,-0.00000009,0.00000004,0.00000006,-0.00000003,0.00000009,0.0
 0000007,-0.00000009,0.00000003,0.00000005,-0.00000002,0.00000008,0.000
 00006,-0.00000008,0.00000002,0.00000004,0.,0.00000006,0.00000006,-0.00
 000008,0.,0.00000004,0.,0.00000008,-0.00000002,0.00000004,-0.13187344,
 0.09911385,-0.01819955,0.02372790,-0.05024694,0.01993346,-0.00974208,0
 .00544153,0.00388199,0.00662179,0.00153341,0.00068745,-0.00066797,0.00
 067256,-0.00007052,-0.00049425,-0.00080885,0.00000939,-0.00010079,0.00
 004380,0.00009349,0.00016161,0.00006116,-0.00000526,-0.00001304,0.0000
 2731,-0.00000220,-0.00001754,-0.00004420,-0.00000410,-0.00001103,0.000
 01109,0.00000543,0.00001409,-0.00000741,0.00000328,0.00000168,-0.00000
 426,-0.00000556,-0.00000869,0.00001096,0.00000132,-0.00000392,0.000004
 24,-0.00000005,0.00000749,-0.00000999,0.00000289,0.00000137,-0.0000043
 2,-0.00000402,-0.00000439,0.00000867,0.00000104,-0.00000279,0.00000345
 ,-0.00000026,0.00000496,-0.00000767,0.00000186,0.00000114,-0.00000330,
 -0.00000310,-0.00000327,0.00000705,0.00000150,0.00000182,-0.00000384,-
 0.00000235,-0.00000234,0.00000482,0.00000183,0.00000152,-0.00000364,-0
 .00000236,-0.00000187,0.00000429,0.00000194,0.00000121,-0.00000318,-0.
 00000239,-0.00000152,0.00000375,0.00000202,0.00000095,-0.00000281,-0.0
 0000241,-0.00000121,0.00000331,0.00000210,0.00000073,-0.00000251,-0.00
 000244,-0.00000094,0.00000293,0.00000244,0.00000045,-0.00000228,-0.000
 00286,-0.00000043,0.00000244,0.00000269,-0.00000093,-0.00000042,-0.018
 91267,0.00907543,0.00131570,-0.00164653,-0.00357953,-0.00172142,0.0002
 1679,-0.00035602,0.00003199,-0.00003680,0.00009168,0.00005284,0.000006
 73,0.00000143,0.00001962,-0.00001520,-0.00003163,-0.00002747,0.0000028
 4,-0.00000452,0.00000464,0.00000391,0.00000906,0.00000952,0.00000244,-
 0.00000225,0.00000325,-0.00000057,-0.00000159,0.00000013,0.00000157,-0
 .00000159,0.00000180,-0.00000067,0.00000069,0.00000106,0.00000242,0.00
 000012,-0.00000108,-0.00000071,0.00000066,-0.00000020,0.00000155,-0.00
 000122,0.00000107,-0.00000068,0.00000013,0.00000036,0.00000162,0.00000
 007,-0.00000085,-0.00000044,0.00000053,-0.00000008,0.00000109,-0.00000
 090,0.00000082,-0.00000058,0.00000012,0.00000026,0.00000130,0.00000017
 ,-0.00000095,0.00000017,0.00000025,-0.00000026,0.00000077,0.00000032,-
 0.00000086,0.00000015,0.00000015,-0.00000020,0.00000065,0.00000027,-0.
 00000074,0.00000012,0.00000012,-0.00000015,0.00000056,0.00000024,-0.00
 000064,0.00000010,0.00000009,-0.00000011,0.00000048,0.00000021,-0.0000
 0057,0.00000007,0.00000007,-0.00000008,0.00000042,0.00000019,-0.000000
 50,0.00000005,0.00000004,-0.00000004,0.00000031,0.00000019,-0.00000044
 ,-0.00000009,0.00000006,0.00000002,0.00000035,-0.00000024,0.00000019,0
 .01404182,-0.02467252,0.04362217\\-0.00000284,0.00000025,0.00000154,-0
 .00000345,-0.00000007,0.00000212,0.00000574,0.00000153,-0.00000465,-0.
 00000695,-0.00000101,0.00000485,0.00000856,0.00000103,-0.00000572,-0.0
 0000880,-0.00000137,0.00000607,0.00000841,0.00000107,-0.00000590,-0.00
 000753,-0.00000180,0.00000568,0.00000584,0.00000066,-0.00000436,-0.000
 00385,-0.00000149,0.00000367,0.00000303,0.00000037,-0.00000300,0.00000
 269,-0.00000340,0.00000253,-0.00000175,0.00000181,-0.00000232,0.000005
 03,-0.00000160,-0.00000128,-0.00000570,0.00000127,0.00000126,0.0000055
 6,-0.00000236,-0.00000029,-0.00000583,0.00000241,-0.00000052,0.0000059
 5,-0.00000336,0.00000096,-0.00000638,0.00000210,0.00000007,0.00000458,
 0.00000017,-0.00000293,-0.00000611,0.00000074,0.00000149,-0.00000018,0
 .00000104,-0.00000139,0.00000042,-0.00000199,0.00000277,-0.00000248,0.
 00000317,-0.00000300,0.00000385,-0.00000514,0.00000551,-0.00000541,0.0
 0000596,-0.00000532,0.00000656,-0.00000710,0.00000689,-0.00000728,0.00
 000758,-0.00000653,0.00000730,-0.00000733,0.00000683,-0.00000695,0.000
 00721,-0.00000614,0.00000556,-0.00000555,0.00000529,-0.00000400,0.0000
 0524,-0.00000497,0.00000295,-0.00000244,0.00000223,0.00000223,-0.00000
 153,0.00000143,0.00000149,0.00000014,-0.00000042,0.00000123,0.00000013
 ,-0.00000059,-0.00000118,0.00000015,0.00000096,0.00000144,0.00000003,-
 0.00000063,-0.00000144,0.00000033,0.00000084,0.00000166,0.00000014,-0.
 00000089,-0.00000136,0.00000032,0.00000082,0.00000140,0.00000025,-0.00
 000086,-0.00000108,0.00000035,0.00000064,0.00000068,0.00000031,-0.0000
 0055,-0.00000148,-0.00000012,0.00000070,-0.00000093,0.00000047,-0.0000
 0006,-0.00000009,0.00000030,-0.00000044,-0.00000104,0.00000065,0.00000
 054,0.00000052,-0.00000012,0.00000071,-0.00000088,0.00000049,-0.000000
 69,0.00000069,-0.00000051,-0.00000100,-0.00000085,-0.00000023,0.000000
 31,0.00000120,-0.00000057,0.00000019,0.00000020,0.00000066,-0.00000013
 ,0.00000117,-0.00000065,-0.00000019,0.00000083,-0.00000089,0.00000063,
 -0.00000024,0.00000011,-0.00000074,0.00000072,-0.00000065,0.00000024,-
 0.00000087,0.00000065,-0.00000100,0.00000108,-0.00000088,0.00000048,-0
 .00000125,0.00000096,-0.00000105,0.00000134,-0.00000102,0.00000070,-0.
 00000141,0.00000111,-0.00000096,0.00000137,-0.00000095,0.00000076,-0.0
 0000120,0.00000093,-0.00000064,0.00000104,-0.00000081,0.00000094,-0.00
 000087,0.00000085,-0.00000056,-0.00000102,0.00000106,-0.00000037,-0.00
 000018,0.00000058,-0.00000027,0.00000053,0.00000033,-0.00000033\\\@


 The lyf so short, the craft so long to lerne.
                             -- Chaucer
 Job cpu time:       0 days  2 hours 27 minutes 27.0 seconds.
 Elapsed time:       0 days  2 hours 27 minutes 27.1 seconds.
 File lengths (MBytes):  RWF=   3099 Int=      0 D2E=      0 Chk=     41 Scr=      1
 Normal termination of Gaussian 16 at Sun Oct 29 11:53:56 2023.
