 Entering Gaussian System, Link 0=g16
 Input=./com/18.com
 Output=./log/18.log
 Initial command:
 /home/shohei/gaussian/g16/l1.exe "/home/shohei/gaussian/scratch/Gau-26554.inp" -scrdir="/home/shohei/gaussian/scratch/"
 Entering Link 1 = /home/shohei/gaussian/g16/l1.exe PID=     26556.
  
 Copyright (c) 1988-2017, Gaussian, Inc.  All Rights Reserved.
  
 This is part of the Gaussian(R) 16 program.  It is based on
 the Gaussian(R) 09 system (copyright 2009, Gaussian, Inc.),
 the Gaussian(R) 03 system (copyright 2003, Gaussian, Inc.),
 the Gaussian(R) 98 system (copyright 1998, Gaussian, Inc.),
 the Gaussian(R) 94 system (copyright 1995, Gaussian, Inc.),
 the Gaussian 92(TM) system (copyright 1992, Gaussian, Inc.),
 the Gaussian 90(TM) system (copyright 1990, Gaussian, Inc.),
 the Gaussian 88(TM) system (copyright 1988, Gaussian, Inc.),
 the Gaussian 86(TM) system (copyright 1986, Carnegie Mellon
 University), and the Gaussian 82(TM) system (copyright 1983,
 Carnegie Mellon University). Gaussian is a federally registered
 trademark of Gaussian, Inc.
  
 This software contains proprietary and confidential information,
 including trade secrets, belonging to Gaussian, Inc.
  
 This software is provided under written license and may be
 used, copied, transmitted, or stored only in accord with that
 written license.
  
 The following legend is applicable only to US Government
 contracts under FAR:
  
                    RESTRICTED RIGHTS LEGEND
  
 Use, reproduction and disclosure by the US Government is
 subject to restrictions as set forth in subparagraphs (a)
 and (c) of the Commercial Computer Software - Restricted
 Rights clause in FAR 52.227-19.
  
 Gaussian, Inc.
 340 Quinnipiac St., Bldg. 40, Wallingford CT 06492
  
  
 ---------------------------------------------------------------
 Warning -- This program may not be used in any manner that
 competes with the business of Gaussian, Inc. or will provide
 assistance to any competitor of Gaussian, Inc.  The licensee
 of this program is prohibited from giving any competitor of
 Gaussian, Inc. access to this program.  By using this program,
 the user acknowledges that Gaussian, Inc. is engaged in the
 business of creating and licensing software in the field of
 computational chemistry and represents and warrants to the
 licensee that it is not a competitor of Gaussian, Inc. and that
 it will not use this program in any manner prohibited above.
 ---------------------------------------------------------------
  

 Cite this work as:
 Gaussian 16, Revision B.01,
 M. J. Frisch, G. W. Trucks, H. B. Schlegel, G. E. Scuseria, 
 M. A. Robb, J. R. Cheeseman, G. Scalmani, V. Barone, 
 G. A. Petersson, H. Nakatsuji, X. Li, M. Caricato, A. V. Marenich, 
 J. Bloino, B. G. Janesko, R. Gomperts, B. Mennucci, H. P. Hratchian, 
 J. V. Ortiz, A. F. Izmaylov, J. L. Sonnenberg, D. Williams-Young, 
 F. Ding, F. Lipparini, F. Egidi, J. Goings, B. Peng, A. Petrone, 
 T. Henderson, D. Ranasinghe, V. G. Zakrzewski, J. Gao, N. Rega, 
 G. Zheng, W. Liang, M. Hada, M. Ehara, K. Toyota, R. Fukuda, 
 J. Hasegawa, M. Ishida, T. Nakajima, Y. Honda, O. Kitao, H. Nakai, 
 T. Vreven, K. Throssell, J. A. Montgomery, Jr., J. E. Peralta, 
 F. Ogliaro, M. J. Bearpark, J. J. Heyd, E. N. Brothers, K. N. Kudin, 
 V. N. Staroverov, T. A. Keith, R. Kobayashi, J. Normand, 
 K. Raghavachari, A. P. Rendell, J. C. Burant, S. S. Iyengar, 
 J. Tomasi, M. Cossi, J. M. Millam, M. Klene, C. Adamo, R. Cammi, 
 J. W. Ochterski, R. L. Martin, K. Morokuma, O. Farkas, 
 J. B. Foresman, and D. J. Fox, Gaussian, Inc., Wallingford CT, 2016.
 
 ******************************************
 Gaussian 16:  EM64L-G16RevB.01 20-Dec-2017
                29-Oct-2023 
 ******************************************
 %chk=./chk/18.chk
 ---------------------------
 # B3LYP/6-31G(d,p) OPT FREQ
 ---------------------------
 1/18=20,19=15,26=3,38=1/1,3;
 2/9=110,12=2,17=6,18=5,40=1/2;
 3/5=1,6=6,7=101,11=2,25=1,30=1,71=1,74=-5/1,2,3;
 4//1;
 5/5=2,38=5/2;
 6/7=2,8=2,9=2,10=2,28=1/1;
 7//1,2,3,16;
 1/18=20,19=15,26=3/3(2);
 2/9=110/2;
 99//99;
 2/9=110/2;
 3/5=1,6=6,7=101,11=2,25=1,30=1,71=1,74=-5/1,2,3;
 4/5=5,16=3,69=1/1;
 5/5=2,38=5/2;
 7//1,2,3,16;
 1/18=20,19=15,26=3/3(-5);
 2/9=110/2;
 6/7=2,8=2,9=2,10=2,19=2,28=1/1;
 99/9=1/99;
 ------
 18poly
 ------
 Symbolic Z-matrix:
 Charge =  0 Multiplicity = 1
 C                    -11.05413   3.28421   1.0933 
 C                    -10.69495   2.40972   2.04261 
 C                    -9.33173   1.84093   2.2095 
 C                    -8.27754   2.13268   1.42798 
 C                    -6.95967   1.50805   1.67352 
 C                    -5.90969   1.79035   0.89091 
 C                    -4.59203   1.16167   1.12225 
 C                    -3.55436   1.43731   0.32142 
 C                    -2.23485   0.80385   0.52803 
 C                    -1.2162    1.07024  -0.29994 
 C                     0.10595   0.4321   -0.12705 
 C                     1.09912   0.68887  -0.98875 
 C                     2.42561   0.0479   -0.85768 
 C                     3.38542   0.30359  -1.76389 
 C                     4.75017  -0.28427  -1.77038 
 C                     5.2317   -1.14467  -0.84816 
 C                     6.59831  -1.74163  -0.87656 
 C                     7.51143  -1.52038  -1.84626 
 C                     8.87281  -2.11611  -1.90196 
 C                     9.40369  -2.94572  -0.97855 
 C                     10.77042  -3.53784  -1.05777 
 C                     11.63372  -3.34298  -2.07742 
 C                     12.99643  -3.92833  -2.17017 
 C                     13.57595  -4.71698  -1.24837 
 C                     14.94608  -5.22751  -1.47164 
 C                     15.56517  -5.99893  -0.56823 
 C                     16.9376  -6.48788  -0.81862 
 C                     17.58555  -7.24318   0.07777 
 C                     18.96047  -7.71418  -0.19226 
 C                     19.63085  -8.45471   0.69993 
 C                     21.00763  -8.91209   0.41656 
 C                     21.69335  -9.64104   1.30667 
 C                     23.07128  -10.08976   1.01551 
 C                     23.76561  -10.81133   1.90496 
 C                     25.14351  -11.25558   1.60995 
 C                     25.84234  -11.97173   2.49354 
 H                    -10.36461   3.66047   0.34874 
 H                    -11.45489   2.08644   2.74759 
 H                    -9.19888   1.13866   3.02804 
 H                    -8.36951   2.82715   0.6013 
 H                    -6.84602   0.80731   2.49746 
 H                    -6.02577   2.48894   0.06525 
 H                    -4.46997   0.46268   1.94639 
 H                    -3.6833    2.13315  -0.50473 
 H                    -2.0969    0.10832   1.35253 
 H                    -1.36396   1.76177  -1.12661 
 H                     0.26567  -0.2587    0.69741 
 H                     0.9255    1.37567  -1.81442 
 H                     2.59436  -0.63272  -0.03168 
 H                     3.16178   0.98791  -2.57835 
 H                     5.36541   0.02961  -2.60164 
 H                     4.61032  -1.44926  -0.01574 
 H                     6.8322   -2.40018  -0.05034 
 H                     7.27788  -0.87054  -2.67769 
 H                     9.44563  -1.83119  -2.77313 
 H                     8.82977  -3.2236   -0.10417 
 H                     11.05231  -4.16631  -0.22276 
 H                     11.35795  -2.72307  -2.91859 
 H                     13.55648  -3.68144  -3.0686 
 H                     13.06291  -4.98908  -0.33356 
 H                     15.46241  -4.96409  -2.39236 
 H                     15.06045  -6.26499   0.35756 
 H                     17.4301  -6.22171  -1.75146 
 H                     17.10148  -7.50989   1.01441 
 H                     19.43498  -7.44792  -1.1343 
 H                     19.16253  -8.72074   1.64478 
 H                     21.46944  -8.6469   -0.53201 
 H                     21.23546  -9.90571   2.25702 
 H                     23.52566  -9.82604   0.06297 
 H                     23.31392  -11.07501   2.85859 
 H                     25.60393  -10.9987   0.65957 
 H                     25.41799  -12.24814   3.45423 
 H                     26.85327  -12.28755   2.25676 
 H                    -12.07873   3.64015   1.05579 
 

 GradGradGradGradGradGradGradGradGradGradGradGradGradGradGradGradGradGrad
 Berny optimization.
 Initialization pass.
                           ----------------------------
                           !    Initial Parameters    !
                           ! (Angstroms and Degrees)  !
 --------------------------                            --------------------------
 ! Name  Definition              Value          Derivative Info.                !
 --------------------------------------------------------------------------------
 ! R1    R(1,2)                  1.3398         estimate D2E/DX2                !
 ! R2    R(1,37)                 1.0823         estimate D2E/DX2                !
 ! R3    R(1,74)                 1.0853         estimate D2E/DX2                !
 ! R4    R(2,3)                  1.4865         estimate D2E/DX2                !
 ! R5    R(2,38)                 1.0858         estimate D2E/DX2                !
 ! R6    R(3,4)                  1.3443         estimate D2E/DX2                !
 ! R7    R(3,39)                 1.0867         estimate D2E/DX2                !
 ! R8    R(4,5)                  1.4789         estimate D2E/DX2                !
 ! R9    R(4,40)                 1.0836         estimate D2E/DX2                !
 ! R10   R(5,6)                  1.3396         estimate D2E/DX2                !
 ! R11   R(5,41)                 1.0876         estimate D2E/DX2                !
 ! R12   R(6,7)                  1.4782         estimate D2E/DX2                !
 ! R13   R(6,42)                 1.0878         estimate D2E/DX2                !
 ! R14   R(7,8)                  1.3394         estimate D2E/DX2                !
 ! R15   R(7,43)                 1.0875         estimate D2E/DX2                !
 ! R16   R(8,9)                  1.4782         estimate D2E/DX2                !
 ! R17   R(8,44)                 1.0878         estimate D2E/DX2                !
 ! R18   R(9,10)                 1.3395         estimate D2E/DX2                !
 ! R19   R(9,45)                 1.0875         estimate D2E/DX2                !
 ! R20   R(10,11)                1.4782         estimate D2E/DX2                !
 ! R21   R(10,46)                1.0879         estimate D2E/DX2                !
 ! R22   R(11,12)                1.3397         estimate D2E/DX2                !
 ! R23   R(11,47)                1.0874         estimate D2E/DX2                !
 ! R24   R(12,13)                1.4791         estimate D2E/DX2                !
 ! R25   R(12,48)                1.0879         estimate D2E/DX2                !
 ! R26   R(13,14)                1.3446         estimate D2E/DX2                !
 ! R27   R(13,49)                1.0835         estimate D2E/DX2                !
 ! R28   R(14,15)                1.486          estimate D2E/DX2                !
 ! R29   R(14,50)                1.087          estimate D2E/DX2                !
 ! R30   R(15,16)                1.3501         estimate D2E/DX2                !
 ! R31   R(15,51)                1.0808         estimate D2E/DX2                !
 ! R32   R(16,17)                1.4916         estimate D2E/DX2                !
 ! R33   R(16,52)                1.0825         estimate D2E/DX2                !
 ! R34   R(17,18)                1.3502         estimate D2E/DX2                !
 ! R35   R(17,53)                1.0821         estimate D2E/DX2                !
 ! R36   R(18,19)                1.4871         estimate D2E/DX2                !
 ! R37   R(18,54)                1.0808         estimate D2E/DX2                !
 ! R38   R(19,20)                1.3501         estimate D2E/DX2                !
 ! R39   R(19,55)                1.0809         estimate D2E/DX2                !
 ! R40   R(20,21)                1.4916         estimate D2E/DX2                !
 ! R41   R(20,56)                1.0822         estimate D2E/DX2                !
 ! R42   R(21,22)                1.3502         estimate D2E/DX2                !
 ! R43   R(21,57)                1.0824         estimate D2E/DX2                !
 ! R44   R(22,23)                1.486          estimate D2E/DX2                !
 ! R45   R(22,58)                1.0807         estimate D2E/DX2                !
 ! R46   R(23,24)                1.3444         estimate D2E/DX2                !
 ! R47   R(23,59)                1.0871         estimate D2E/DX2                !
 ! R48   R(24,25)                1.4791         estimate D2E/DX2                !
 ! R49   R(24,60)                1.0836         estimate D2E/DX2                !
 ! R50   R(25,26)                1.3396         estimate D2E/DX2                !
 ! R51   R(25,61)                1.088          estimate D2E/DX2                !
 ! R52   R(26,27)                1.4783         estimate D2E/DX2                !
 ! R53   R(26,62)                1.0875         estimate D2E/DX2                !
 ! R54   R(27,28)                1.3393         estimate D2E/DX2                !
 ! R55   R(27,63)                1.0879         estimate D2E/DX2                !
 ! R56   R(28,29)                1.4782         estimate D2E/DX2                !
 ! R57   R(28,64)                1.0875         estimate D2E/DX2                !
 ! R58   R(29,30)                1.3393         estimate D2E/DX2                !
 ! R59   R(29,65)                1.0879         estimate D2E/DX2                !
 ! R60   R(30,31)                1.4782         estimate D2E/DX2                !
 ! R61   R(30,66)                1.0876         estimate D2E/DX2                !
 ! R62   R(31,32)                1.3394         estimate D2E/DX2                !
 ! R63   R(31,67)                1.0878         estimate D2E/DX2                !
 ! R64   R(32,33)                1.4781         estimate D2E/DX2                !
 ! R65   R(32,68)                1.0876         estimate D2E/DX2                !
 ! R66   R(33,34)                1.3394         estimate D2E/DX2                !
 ! R67   R(33,69)                1.0878         estimate D2E/DX2                !
 ! R68   R(34,35)                1.4775         estimate D2E/DX2                !
 ! R69   R(34,70)                1.0876         estimate D2E/DX2                !
 ! R70   R(35,36)                1.3349         estimate D2E/DX2                !
 ! R71   R(35,71)                1.0868         estimate D2E/DX2                !
 ! R72   R(36,72)                1.086          estimate D2E/DX2                !
 ! R73   R(36,73)                1.0853         estimate D2E/DX2                !
 ! A1    A(2,1,37)             122.9276         estimate D2E/DX2                !
 ! A2    A(2,1,74)             119.4491         estimate D2E/DX2                !
 ! A3    A(37,1,74)            117.6232         estimate D2E/DX2                !
 ! A4    A(1,2,3)              125.1106         estimate D2E/DX2                !
 ! A5    A(1,2,38)             117.8229         estimate D2E/DX2                !
 ! A6    A(3,2,38)             117.0665         estimate D2E/DX2                !
 ! A7    A(2,3,4)              124.8081         estimate D2E/DX2                !
 ! A8    A(2,3,39)             116.3561         estimate D2E/DX2                !
 ! A9    A(4,3,39)             118.8357         estimate D2E/DX2                !
 ! A10   A(3,4,5)              120.7039         estimate D2E/DX2                !
 ! A11   A(3,4,40)             121.0678         estimate D2E/DX2                !
 ! A12   A(5,4,40)             118.2279         estimate D2E/DX2                !
 ! A13   A(4,5,6)              120.8263         estimate D2E/DX2                !
 ! A14   A(4,5,41)             119.4075         estimate D2E/DX2                !
 ! A15   A(6,5,41)             119.7654         estimate D2E/DX2                !
 ! A16   A(5,6,7)              121.173          estimate D2E/DX2                !
 ! A17   A(5,6,42)             119.678          estimate D2E/DX2                !
 ! A18   A(7,6,42)             119.1478         estimate D2E/DX2                !
 ! A19   A(6,7,8)              120.6303         estimate D2E/DX2                !
 ! A20   A(6,7,43)             119.473          estimate D2E/DX2                !
 ! A21   A(8,7,43)             119.8946         estimate D2E/DX2                !
 ! A22   A(7,8,9)              121.3182         estimate D2E/DX2                !
 ! A23   A(7,8,44)             119.5959         estimate D2E/DX2                !
 ! A24   A(9,8,44)             119.0831         estimate D2E/DX2                !
 ! A25   A(8,9,10)             120.4793         estimate D2E/DX2                !
 ! A26   A(8,9,45)             119.5578         estimate D2E/DX2                !
 ! A27   A(10,9,45)            119.9592         estimate D2E/DX2                !
 ! A28   A(9,10,11)            121.4692         estimate D2E/DX2                !
 ! A29   A(9,10,46)            119.5285         estimate D2E/DX2                !
 ! A30   A(11,10,46)           118.9981         estimate D2E/DX2                !
 ! A31   A(10,11,12)           120.3368         estimate D2E/DX2                !
 ! A32   A(10,11,47)           119.6231         estimate D2E/DX2                !
 ! A33   A(12,11,47)           120.0353         estimate D2E/DX2                !
 ! A34   A(11,12,13)           121.6547         estimate D2E/DX2                !
 ! A35   A(11,12,48)           119.3961         estimate D2E/DX2                !
 ! A36   A(13,12,48)           118.9444         estimate D2E/DX2                !
 ! A37   A(12,13,14)           119.873          estimate D2E/DX2                !
 ! A38   A(12,13,49)           118.6501         estimate D2E/DX2                !
 ! A39   A(14,13,49)           121.4718         estimate D2E/DX2                !
 ! A40   A(13,14,15)           125.6849         estimate D2E/DX2                !
 ! A41   A(13,14,50)           118.5439         estimate D2E/DX2                !
 ! A42   A(15,14,50)           115.767          estimate D2E/DX2                !
 ! A43   A(14,15,16)           125.2192         estimate D2E/DX2                !
 ! A44   A(14,15,51)           114.2859         estimate D2E/DX2                !
 ! A45   A(16,15,51)           120.4943         estimate D2E/DX2                !
 ! A46   A(15,16,17)           124.6697         estimate D2E/DX2                !
 ! A47   A(15,16,52)           119.9911         estimate D2E/DX2                !
 ! A48   A(17,16,52)           115.3389         estimate D2E/DX2                !
 ! A49   A(16,17,18)           124.5915         estimate D2E/DX2                !
 ! A50   A(16,17,53)           115.2804         estimate D2E/DX2                !
 ! A51   A(18,17,53)           120.1248         estimate D2E/DX2                !
 ! A52   A(17,18,19)           125.4775         estimate D2E/DX2                !
 ! A53   A(17,18,54)           120.3228         estimate D2E/DX2                !
 ! A54   A(19,18,54)           114.1973         estimate D2E/DX2                !
 ! A55   A(18,19,20)           125.4877         estimate D2E/DX2                !
 ! A56   A(18,19,55)           114.1904         estimate D2E/DX2                !
 ! A57   A(20,19,55)           120.3219         estimate D2E/DX2                !
 ! A58   A(19,20,21)           124.6041         estimate D2E/DX2                !
 ! A59   A(19,20,56)           120.1232         estimate D2E/DX2                !
 ! A60   A(21,20,56)           115.2726         estimate D2E/DX2                !
 ! A61   A(20,21,22)           124.6595         estimate D2E/DX2                !
 ! A62   A(20,21,57)           115.349          estimate D2E/DX2                !
 ! A63   A(22,21,57)           119.9907         estimate D2E/DX2                !
 ! A64   A(21,22,23)           125.2139         estimate D2E/DX2                !
 ! A65   A(21,22,58)           120.4942         estimate D2E/DX2                !
 ! A66   A(23,22,58)           114.2915         estimate D2E/DX2                !
 ! A67   A(22,23,24)           125.7015         estimate D2E/DX2                !
 ! A68   A(22,23,59)           115.7564         estimate D2E/DX2                !
 ! A69   A(24,23,59)           118.5418         estimate D2E/DX2                !
 ! A70   A(23,24,25)           119.8856         estimate D2E/DX2                !
 ! A71   A(23,24,60)           121.4704         estimate D2E/DX2                !
 ! A72   A(25,24,60)           118.6435         estimate D2E/DX2                !
 ! A73   A(24,25,26)           121.6726         estimate D2E/DX2                !
 ! A74   A(24,25,61)           118.9328         estimate D2E/DX2                !
 ! A75   A(26,25,61)           119.3941         estimate D2E/DX2                !
 ! A76   A(25,26,27)           120.3507         estimate D2E/DX2                !
 ! A77   A(25,26,62)           120.0343         estimate D2E/DX2                !
 ! A78   A(27,26,62)           119.6143         estimate D2E/DX2                !
 ! A79   A(26,27,28)           121.4865         estimate D2E/DX2                !
 ! A80   A(26,27,63)           118.9861         estimate D2E/DX2                !
 ! A81   A(28,27,63)           119.5268         estimate D2E/DX2                !
 ! A82   A(27,28,29)           120.4905         estimate D2E/DX2                !
 ! A83   A(27,28,64)           119.9588         estimate D2E/DX2                !
 ! A84   A(29,28,64)           119.55           estimate D2E/DX2                !
 ! A85   A(28,29,30)           121.3347         estimate D2E/DX2                !
 ! A86   A(28,29,65)           119.0712         estimate D2E/DX2                !
 ! A87   A(30,29,65)           119.5936         estimate D2E/DX2                !
 ! A88   A(29,30,31)           120.6358         estimate D2E/DX2                !
 ! A89   A(29,30,66)           119.8968         estimate D2E/DX2                !
 ! A90   A(31,30,66)           119.467          estimate D2E/DX2                !
 ! A91   A(30,31,32)           121.1888         estimate D2E/DX2                !
 ! A92   A(30,31,67)           119.1524         estimate D2E/DX2                !
 ! A93   A(32,31,67)           119.6585         estimate D2E/DX2                !
 ! A94   A(31,32,33)           120.7699         estimate D2E/DX2                !
 ! A95   A(31,32,68)           119.842          estimate D2E/DX2                !
 ! A96   A(33,32,68)           119.3879         estimate D2E/DX2                !
 ! A97   A(32,33,34)           121.0649         estimate D2E/DX2                !
 ! A98   A(32,33,69)           119.2277         estimate D2E/DX2                !
 ! A99   A(34,33,69)           119.7073         estimate D2E/DX2                !
 ! A100  A(33,34,35)           120.8539         estimate D2E/DX2                !
 ! A101  A(33,34,70)           119.84           estimate D2E/DX2                !
 ! A102  A(35,34,70)           119.306          estimate D2E/DX2                !
 ! A103  A(34,35,36)           121.155          estimate D2E/DX2                !
 ! A104  A(34,35,71)           119.9083         estimate D2E/DX2                !
 ! A105  A(36,35,71)           118.9367         estimate D2E/DX2                !
 ! A106  A(35,36,72)           121.1667         estimate D2E/DX2                !
 ! A107  A(35,36,73)           119.9569         estimate D2E/DX2                !
 ! A108  A(72,36,73)           118.8764         estimate D2E/DX2                !
 ! D1    D(37,1,2,3)            -0.0219         estimate D2E/DX2                !
 ! D2    D(37,1,2,38)         -179.9482         estimate D2E/DX2                !
 ! D3    D(74,1,2,3)           179.9452         estimate D2E/DX2                !
 ! D4    D(74,1,2,38)            0.019          estimate D2E/DX2                !
 ! D5    D(1,2,3,4)              0.1097         estimate D2E/DX2                !
 ! D6    D(1,2,3,39)          -179.7906         estimate D2E/DX2                !
 ! D7    D(38,2,3,4)          -179.9635         estimate D2E/DX2                !
 ! D8    D(38,2,3,39)            0.1361         estimate D2E/DX2                !
 ! D9    D(2,3,4,5)           -179.7578         estimate D2E/DX2                !
 ! D10   D(2,3,4,40)             0.0439         estimate D2E/DX2                !
 ! D11   D(39,3,4,5)             0.1402         estimate D2E/DX2                !
 ! D12   D(39,3,4,40)          179.942          estimate D2E/DX2                !
 ! D13   D(3,4,5,6)            179.5605         estimate D2E/DX2                !
 ! D14   D(3,4,5,41)            -0.1267         estimate D2E/DX2                !
 ! D15   D(40,4,5,6)            -0.2468         estimate D2E/DX2                !
 ! D16   D(40,4,5,41)         -179.934          estimate D2E/DX2                !
 ! D17   D(4,5,6,7)           -179.4699         estimate D2E/DX2                !
 ! D18   D(4,5,6,42)             0.1158         estimate D2E/DX2                !
 ! D19   D(41,5,6,7)             0.2161         estimate D2E/DX2                !
 ! D20   D(41,5,6,42)          179.8018         estimate D2E/DX2                !
 ! D21   D(5,6,7,8)            179.0451         estimate D2E/DX2                !
 ! D22   D(5,6,7,43)            -0.4305         estimate D2E/DX2                !
 ! D23   D(42,6,7,8)            -0.5428         estimate D2E/DX2                !
 ! D24   D(42,6,7,43)          179.9816         estimate D2E/DX2                !
 ! D25   D(6,7,8,9)           -179.1882         estimate D2E/DX2                !
 ! D26   D(6,7,8,44)             0.1995         estimate D2E/DX2                !
 ! D27   D(43,7,8,9)             0.2851         estimate D2E/DX2                !
 ! D28   D(43,7,8,44)          179.6728         estimate D2E/DX2                !
 ! D29   D(7,8,9,10)           178.5905         estimate D2E/DX2                !
 ! D30   D(7,8,9,45)            -0.711          estimate D2E/DX2                !
 ! D31   D(44,8,9,10)           -0.8003         estimate D2E/DX2                !
 ! D32   D(44,8,9,45)          179.8982         estimate D2E/DX2                !
 ! D33   D(8,9,10,11)         -178.975          estimate D2E/DX2                !
 ! D34   D(8,9,10,46)            0.2728         estimate D2E/DX2                !
 ! D35   D(45,9,10,11)           0.3237         estimate D2E/DX2                !
 ! D36   D(45,9,10,46)         179.5715         estimate D2E/DX2                !
 ! D37   D(9,10,11,12)         178.2886         estimate D2E/DX2                !
 ! D38   D(9,10,11,47)          -0.9142         estimate D2E/DX2                !
 ! D39   D(46,10,11,12)         -0.9631         estimate D2E/DX2                !
 ! D40   D(46,10,11,47)        179.8341         estimate D2E/DX2                !
 ! D41   D(10,11,12,13)       -178.8759         estimate D2E/DX2                !
 ! D42   D(10,11,12,48)          0.3194         estimate D2E/DX2                !
 ! D43   D(47,11,12,13)          0.3236         estimate D2E/DX2                !
 ! D44   D(47,11,12,48)        179.5189         estimate D2E/DX2                !
 ! D45   D(11,12,13,14)        178.1885         estimate D2E/DX2                !
 ! D46   D(11,12,13,49)         -1.0045         estimate D2E/DX2                !
 ! D47   D(48,12,13,14)         -1.0103         estimate D2E/DX2                !
 ! D48   D(48,12,13,49)        179.7967         estimate D2E/DX2                !
 ! D49   D(12,13,14,15)       -178.9038         estimate D2E/DX2                !
 ! D50   D(12,13,14,50)          0.3123         estimate D2E/DX2                !
 ! D51   D(49,13,14,15)          0.2659         estimate D2E/DX2                !
 ! D52   D(49,13,14,50)        179.482          estimate D2E/DX2                !
 ! D53   D(13,14,15,16)         -1.3045         estimate D2E/DX2                !
 ! D54   D(13,14,15,51)        178.4198         estimate D2E/DX2                !
 ! D55   D(50,14,15,16)        179.4602         estimate D2E/DX2                !
 ! D56   D(50,14,15,51)         -0.8156         estimate D2E/DX2                !
 ! D57   D(14,15,16,17)        179.1452         estimate D2E/DX2                !
 ! D58   D(14,15,16,52)         -0.6398         estimate D2E/DX2                !
 ! D59   D(51,15,16,17)         -0.5631         estimate D2E/DX2                !
 ! D60   D(51,15,16,52)        179.6519         estimate D2E/DX2                !
 ! D61   D(15,16,17,18)         -1.6987         estimate D2E/DX2                !
 ! D62   D(15,16,17,53)        178.9573         estimate D2E/DX2                !
 ! D63   D(52,16,17,18)        178.0953         estimate D2E/DX2                !
 ! D64   D(52,16,17,53)         -1.2487         estimate D2E/DX2                !
 ! D65   D(16,17,18,19)       -179.2982         estimate D2E/DX2                !
 ! D66   D(16,17,18,54)          0.1124         estimate D2E/DX2                !
 ! D67   D(53,17,18,19)          0.0161         estimate D2E/DX2                !
 ! D68   D(53,17,18,54)        179.4267         estimate D2E/DX2                !
 ! D69   D(17,18,19,20)         -1.2966         estimate D2E/DX2                !
 ! D70   D(17,18,19,55)        178.6958         estimate D2E/DX2                !
 ! D71   D(54,18,19,20)        179.2611         estimate D2E/DX2                !
 ! D72   D(54,18,19,55)         -0.7464         estimate D2E/DX2                !
 ! D73   D(18,19,20,21)        179.6779         estimate D2E/DX2                !
 ! D74   D(18,19,20,56)         -0.4201         estimate D2E/DX2                !
 ! D75   D(55,19,20,21)         -0.3141         estimate D2E/DX2                !
 ! D76   D(55,19,20,56)        179.5879         estimate D2E/DX2                !
 ! D77   D(19,20,21,22)         -1.6418         estimate D2E/DX2                !
 ! D78   D(19,20,21,57)        178.68           estimate D2E/DX2                !
 ! D79   D(56,20,21,22)        178.452          estimate D2E/DX2                !
 ! D80   D(56,20,21,57)         -1.2263         estimate D2E/DX2                !
 ! D81   D(20,21,22,23)       -179.8846         estimate D2E/DX2                !
 ! D82   D(20,21,22,58)         -0.1206         estimate D2E/DX2                !
 ! D83   D(57,21,22,23)         -0.2202         estimate D2E/DX2                !
 ! D84   D(57,21,22,58)        179.5437         estimate D2E/DX2                !
 ! D85   D(21,22,23,24)         -1.0977         estimate D2E/DX2                !
 ! D86   D(21,22,23,59)        179.1111         estimate D2E/DX2                !
 ! D87   D(58,22,23,24)        179.1254         estimate D2E/DX2                !
 ! D88   D(58,22,23,59)         -0.6657         estimate D2E/DX2                !
 ! D89   D(22,23,24,25)       -179.819          estimate D2E/DX2                !
 ! D90   D(22,23,24,60)         -0.0781         estimate D2E/DX2                !
 ! D91   D(59,23,24,25)         -0.0331         estimate D2E/DX2                !
 ! D92   D(59,23,24,60)        179.7077         estimate D2E/DX2                !
 ! D93   D(23,24,25,26)        178.9759         estimate D2E/DX2                !
 ! D94   D(23,24,25,61)         -0.761          estimate D2E/DX2                !
 ! D95   D(60,24,25,26)         -0.7722         estimate D2E/DX2                !
 ! D96   D(60,24,25,61)        179.4908         estimate D2E/DX2                !
 ! D97   D(24,25,26,27)       -179.7056         estimate D2E/DX2                !
 ! D98   D(24,25,26,62)         -0.0036         estimate D2E/DX2                !
 ! D99   D(61,25,26,27)          0.0301         estimate D2E/DX2                !
 ! D100  D(61,25,26,62)        179.7322         estimate D2E/DX2                !
 ! D101  D(25,26,27,28)        178.9572         estimate D2E/DX2                !
 ! D102  D(25,26,27,63)         -0.7506         estimate D2E/DX2                !
 ! D103  D(62,26,27,28)         -0.7461         estimate D2E/DX2                !
 ! D104  D(62,26,27,63)        179.5461         estimate D2E/DX2                !
 ! D105  D(26,27,28,29)       -179.6691         estimate D2E/DX2                !
 ! D106  D(26,27,28,64)          0.0333         estimate D2E/DX2                !
 ! D107  D(63,27,28,29)          0.0372         estimate D2E/DX2                !
 ! D108  D(63,27,28,64)        179.7396         estimate D2E/DX2                !
 ! D109  D(27,28,29,30)        179.068          estimate D2E/DX2                !
 ! D110  D(27,28,29,65)         -0.6688         estimate D2E/DX2                !
 ! D111  D(64,28,29,30)         -0.6356         estimate D2E/DX2                !
 ! D112  D(64,28,29,65)        179.6275         estimate D2E/DX2                !
 ! D113  D(28,29,30,31)       -179.7083         estimate D2E/DX2                !
 ! D114  D(28,29,30,66)          0.0454         estimate D2E/DX2                !
 ! D115  D(65,29,30,31)          0.0272         estimate D2E/DX2                !
 ! D116  D(65,29,30,66)        179.7809         estimate D2E/DX2                !
 ! D117  D(29,30,31,32)        179.2829         estimate D2E/DX2                !
 ! D118  D(29,30,31,67)         -0.5233         estimate D2E/DX2                !
 ! D119  D(66,30,31,32)         -0.4719         estimate D2E/DX2                !
 ! D120  D(66,30,31,67)        179.7219         estimate D2E/DX2                !
 ! D121  D(30,31,32,33)       -179.7967         estimate D2E/DX2                !
 ! D122  D(30,31,32,68)          0.0384         estimate D2E/DX2                !
 ! D123  D(67,31,32,33)          0.0085         estimate D2E/DX2                !
 ! D124  D(67,31,32,68)        179.8436         estimate D2E/DX2                !
 ! D125  D(31,32,33,34)        179.5504         estimate D2E/DX2                !
 ! D126  D(31,32,33,69)         -0.342          estimate D2E/DX2                !
 ! D127  D(68,32,33,34)         -0.2855         estimate D2E/DX2                !
 ! D128  D(68,32,33,69)        179.8221         estimate D2E/DX2                !
 ! D129  D(32,33,34,35)       -179.9001         estimate D2E/DX2                !
 ! D130  D(32,33,34,70)          0.0203         estimate D2E/DX2                !
 ! D131  D(69,33,34,35)         -0.0082         estimate D2E/DX2                !
 ! D132  D(69,33,34,70)        179.9122         estimate D2E/DX2                !
 ! D133  D(33,34,35,36)        179.8091         estimate D2E/DX2                !
 ! D134  D(33,34,35,71)         -0.1578         estimate D2E/DX2                !
 ! D135  D(70,34,35,36)         -0.1117         estimate D2E/DX2                !
 ! D136  D(70,34,35,71)        179.9214         estimate D2E/DX2                !
 ! D137  D(34,35,36,72)         -0.0009         estimate D2E/DX2                !
 ! D138  D(34,35,36,73)       -179.9772         estimate D2E/DX2                !
 ! D139  D(71,35,36,72)        179.9663         estimate D2E/DX2                !
 ! D140  D(71,35,36,73)         -0.01           estimate D2E/DX2                !
 --------------------------------------------------------------------------------
 Trust Radius=3.00D-01 FncErr=1.00D-07 GrdErr=1.00D-06 EigMax=2.50D+02 EigMin=1.00D-04
 Number of steps in this run=    331 maximum allowed number of steps=    444.
 GradGradGradGradGradGradGradGradGradGradGradGradGradGradGradGradGradGrad

 Stoichiometry    C36H38
 Framework group  C1[X(C36H38)]
 Deg. of freedom   216
 Full point group                 C1      NOp   1
 Largest Abelian subgroup         C1      NOp   1
 Largest concise Abelian subgroup C1      NOp   1
                         Standard orientation:                         
 ---------------------------------------------------------------------
 Center     Atomic      Atomic             Coordinates (Angstroms)
 Number     Number       Type             X           Y           Z
 ---------------------------------------------------------------------
      1          6           0      -19.816848    1.405411    0.298345
      2          6           0      -19.165838    2.576358    0.301025
      3          6           0      -17.690067    2.734305    0.217929
      4          6           0      -16.813575    1.719095    0.126844
      5          6           0      -15.359787    1.980796    0.054367
      6          6           0      -14.483690    0.970675   -0.027643
      7          6           0      -13.028509    1.223019   -0.088780
      8          6           0      -12.161253    0.204191   -0.151452
      9          6           0      -10.702415    0.438557   -0.195246
     10          6           0       -9.849217   -0.593456   -0.229415
     11          6           0       -8.385964   -0.384626   -0.250967
     12          6           0       -7.552650   -1.433640   -0.250565
     13          6           0       -6.084024   -1.258307   -0.247122
     14          6           0       -5.280990   -2.336073   -0.209969
     15          6           0       -3.795563   -2.309609   -0.178851
     16          6           0       -3.035934   -1.193926   -0.208574
     17          6           0       -1.545265   -1.180818   -0.158468
     18          6           0       -0.772419   -2.282051   -0.044274
     19          6           0        0.713129   -2.290782    0.022284
     20          6           0        1.507188   -1.201049   -0.046506
     21          6           0        2.996525   -1.232035    0.029281
     22          6           0        3.733200   -2.349382    0.207558
     23          6           0        5.216394   -2.394204    0.287286
     24          6           0        6.040476   -1.338048    0.173573
     25          6           0        7.503737   -1.531253    0.269905
     26          6           0        8.358319   -0.507648    0.141703
     27          6           0        9.815906   -0.735101    0.236697
     28          6           0       10.691378    0.268057    0.091524
     29          6           0       12.144775    0.014383    0.183537
     30          6           0       13.035638    1.001457    0.022768
     31          6           0       14.485805    0.729171    0.111627
     32          6           0       15.386643    1.705090   -0.061391
     33          6           0       16.834721    1.421540    0.025068
     34          6           0       17.740835    2.391151   -0.155774
     35          6           0       19.187257    2.102052   -0.070469
     36          6           0       20.095573    3.063025   -0.253397
     37          1           0      -19.310636    0.450992    0.233467
     38          1           0      -19.756824    3.484627    0.370242
     39          1           0      -17.312188    3.752999    0.235161
     40          1           0      -17.150550    0.689422    0.107715
     41          1           0      -15.000336    3.007085    0.073195
     42          1           0      -14.844592   -0.055353   -0.043110
     43          1           0      -12.661892    2.246771   -0.073960
     44          1           0      -12.533078   -0.818063   -0.160619
     45          1           0      -10.322315    1.457413   -0.188109
     46          1           0      -10.236927   -1.609877   -0.229268
     47          1           0       -7.987396    0.627107   -0.254047
     48          1           0       -7.962624   -2.441287   -0.239509
     49          1           0       -5.680854   -0.252700   -0.261553
     50          1           0       -5.736595   -3.322792   -0.188226
     51          1           0       -3.334657   -3.285600   -0.123696
     52          1           0       -3.505999   -0.220724   -0.269547
     53          1           0       -1.089758   -0.200551   -0.209639
     54          1           0       -1.224345   -3.261951    0.016397
     55          1           0        1.145631   -3.274848    0.135396
     56          1           0        1.071032   -0.217927   -0.166460
     57          1           0        3.485416   -0.270846   -0.064395
     58          1           0        3.253206   -3.312261    0.309401
     59          1           0        5.651294   -3.377344    0.448830
     60          1           0        5.658454   -0.337780    0.007247
     61          1           0        7.892062   -2.532344    0.445208
     62          1           0        7.981725    0.496577   -0.038080
     63          1           0       10.181164   -1.742581    0.424212
     64          1           0       10.334133    1.277162   -0.100354
     65          1           0       12.493348   -0.996891    0.381807
     66          1           0       12.692716    2.013606   -0.179184
     67          1           0       14.823023   -0.284205    0.318365
     68          1           0       15.052864    2.718824   -0.270750
     69          1           0       17.165608    0.407281    0.237478
     70          1           0       17.412425    3.405729   -0.369681
     71          1           0       19.526267    1.091978    0.144024
     72          1           0       19.797228    4.084505   -0.470107
     73          1           0       21.153170    2.828872   -0.186693
     74          1           0      -20.900136    1.397016    0.364088
 ---------------------------------------------------------------------
 Rotational constants (GHZ):           0.3639818           0.0075010           0.0073530
 Standard basis: 6-31G(d,p) (6D, 7F)
 There are   730 symmetry adapted cartesian basis functions of A   symmetry.
 There are   730 symmetry adapted basis functions of A   symmetry.
   730 basis functions,  1274 primitive gaussians,   730 cartesian basis functions
   127 alpha electrons      127 beta electrons
       nuclear repulsion energy      2418.8243357068 Hartrees.
 NAtoms=   74 NActive=   74 NUniq=   74 SFac= 1.00D+00 NAtFMM=   60 NAOKFM=T Big=T
 Integral buffers will be    131072 words long.
 Raffenetti 2 integral format.
 Two-electron integral symmetry is turned on.
 One-electron integrals computed using PRISM.
 NBasis=   730 RedAO= T EigKep=  7.31D-04  NBF=   730
 NBsUse=   730 1.00D-06 EigRej= -1.00D+00 NBFU=   730
 ExpMin= 1.61D-01 ExpMax= 3.05D+03 ExpMxC= 4.57D+02 IAcc=3 IRadAn=         5 AccDes= 0.00D+00
 Harris functional with IExCor=  402 and IRadAn=       5 diagonalized for initial guess.
 HarFok:  IExCor=  402 AccDes= 0.00D+00 IRadAn=         5 IDoV= 1 UseB2=F ITyADJ=14
 ICtDFT=  3500011 ScaDFX=  1.000000  1.000000  1.000000  1.000000
 FoFCou: FMM=F IPFlag=           0 FMFlag=      100000 FMFlg1=        2001
         NFxFlg=           0 DoJE=T BraDBF=F KetDBF=T FulRan=T
         wScrn=  0.000000 ICntrl=       500 IOpCl=  0 I1Cent=   200000004 NGrid=           0
         NMat0=    1 NMatS0=      1 NMatT0=    0 NMatD0=    1 NMtDS0=    0 NMtDT0=    0
 Petite list used in FoFCou.
 Requested convergence on RMS density matrix=1.00D-08 within 128 cycles.
 Requested convergence on MAX density matrix=1.00D-06.
 Requested convergence on             energy=1.00D-06.
 No special actions if energy rises.
 Integral accuracy reduced to 1.0D-05 until final iterations.
 Initial convergence to 1.0D-05 achieved.  Increase integral accuracy.
 SCF Done:  E(RB3LYP) =  -1394.50188640     A.U. after   13 cycles
            NFock= 13  Conv=0.68D-08     -V/T= 2.0101

 **********************************************************************

            Population analysis using the SCF Density.

 **********************************************************************

 Orbital symmetries:
       Occupied  (A) (A) (A) (A) (A) (A) (A) (A) (A) (A) (A) (A)
                 (A) (A) (A) (A) (A) (A) (A) (A) (A) (A) (A) (A)
                 (A) (A) (A) (A) (A) (A) (A) (A) (A) (A) (A) (A)
                 (A) (A) (A) (A) (A) (A) (A) (A) (A) (A) (A) (A)
                 (A) (A) (A) (A) (A) (A) (A) (A) (A) (A) (A) (A)
                 (A) (A) (A) (A) (A) (A) (A) (A) (A) (A) (A) (A)
                 (A) (A) (A) (A) (A) (A) (A) (A) (A) (A) (A) (A)
                 (A) (A) (A) (A) (A) (A) (A) (A) (A) (A) (A) (A)
                 (A) (A) (A) (A) (A) (A) (A) (A) (A) (A) (A) (A)
                 (A) (A) (A) (A) (A) (A) (A) (A) (A) (A) (A) (A)
                 (A) (A) (A) (A) (A) (A) (A)
       Virtual   (A) (A) (A) (A) (A) (A) (A) (A) (A) (A) (A) (A)
                 (A) (A) (A) (A) (A) (A) (A) (A) (A) (A) (A) (A)
                 (A) (A) (A) (A) (A) (A) (A) (A) (A) (A) (A) (A)
                 (A) (A) (A) (A) (A) (A) (A) (A) (A) (A) (A) (A)
                 (A) (A) (A) (A) (A) (A) (A) (A) (A) (A) (A) (A)
                 (A) (A) (A) (A) (A) (A) (A) (A) (A) (A) (A) (A)
                 (A) (A) (A) (A) (A) (A) (A) (A) (A) (A) (A) (A)
                 (A) (A) (A) (A) (A) (A) (A) (A) (A) (A) (A) (A)
                 (A) (A) (A) (A) (A) (A) (A) (A) (A) (A) (A) (A)
                 (A) (A) (A) (A) (A) (A) (A) (A) (A) (A) (A) (A)
                 (A) (A) (A) (A) (A) (A) (A) (A) (A) (A) (A) (A)
                 (A) (A) (A) (A) (A) (A) (A) (A) (A) (A) (A) (A)
                 (A) (A) (A) (A) (A) (A) (A) (A) (A) (A) (A) (A)
                 (A) (A) (A) (A) (A) (A) (A) (A) (A) (A) (A) (A)
                 (A) (A) (A) (A) (A) (A) (A) (A) (A) (A) (A) (A)
                 (A) (A) (A) (A) (A) (A) (A) (A) (A) (A) (A) (A)
                 (A) (A) (A) (A) (A) (A) (A) (A) (A) (A) (A) (A)
                 (A) (A) (A) (A) (A) (A) (A) (A) (A) (A) (A) (A)
                 (A) (A) (A) (A) (A) (A) (A) (A) (A) (A) (A) (A)
                 (A) (A) (A) (A) (A) (A) (A) (A) (A) (A) (A) (A)
                 (A) (A) (A) (A) (A) (A) (A) (A) (A) (A) (A) (A)
                 (A) (A) (A) (A) (A) (A) (A) (A) (A) (A) (A) (A)
                 (A) (A) (A) (A) (A) (A) (A) (A) (A) (A) (A) (A)
                 (A) (A) (A) (A) (A) (A) (A) (A) (A) (A) (A) (A)
                 (A) (A) (A) (A) (A) (A) (A) (A) (A) (A) (A) (A)
                 (A) (A) (A) (A) (A) (A) (A) (A) (A) (A) (A) (A)
                 (A) (A) (A) (A) (A) (A) (A) (A) (A) (A) (A) (A)
                 (A) (A) (A) (A) (A) (A) (A) (A) (A) (A) (A) (A)
                 (A) (A) (A) (A) (A) (A) (A) (A) (A) (A) (A) (A)
                 (A) (A) (A) (A) (A) (A) (A) (A) (A) (A) (A) (A)
                 (A) (A) (A) (A) (A) (A) (A) (A) (A) (A) (A) (A)
                 (A) (A) (A) (A) (A) (A) (A) (A) (A) (A) (A) (A)
                 (A) (A) (A) (A) (A) (A) (A) (A) (A) (A) (A) (A)
                 (A) (A) (A) (A) (A) (A) (A) (A) (A) (A) (A) (A)
                 (A) (A) (A) (A) (A) (A) (A) (A) (A) (A) (A) (A)
                 (A) (A) (A) (A) (A) (A) (A) (A) (A) (A) (A) (A)
                 (A) (A) (A) (A) (A) (A) (A) (A) (A) (A) (A) (A)
                 (A) (A) (A) (A) (A) (A) (A) (A) (A) (A) (A) (A)
                 (A) (A) (A) (A) (A) (A) (A) (A) (A) (A) (A) (A)
                 (A) (A) (A) (A) (A) (A) (A) (A) (A) (A) (A) (A)
                 (A) (A) (A) (A) (A) (A) (A) (A) (A) (A) (A) (A)
                 (A) (A) (A) (A) (A) (A) (A) (A) (A) (A) (A) (A)
                 (A) (A) (A) (A) (A) (A) (A) (A) (A) (A) (A) (A)
                 (A) (A) (A) (A) (A) (A) (A) (A) (A) (A) (A) (A)
                 (A) (A) (A) (A) (A) (A) (A) (A) (A) (A) (A) (A)
                 (A) (A) (A) (A) (A) (A) (A) (A) (A) (A) (A) (A)
                 (A) (A) (A) (A) (A) (A) (A) (A) (A) (A) (A) (A)
                 (A) (A) (A) (A) (A) (A) (A) (A) (A) (A) (A) (A)
                 (A) (A) (A) (A) (A) (A) (A) (A) (A) (A) (A) (A)
                 (A) (A) (A) (A) (A) (A) (A) (A) (A) (A) (A) (A)
                 (A) (A) (A)
 The electronic state is 1-A.
 Alpha  occ. eigenvalues --  -10.19399 -10.19395 -10.19366 -10.19363 -10.19295
 Alpha  occ. eigenvalues --  -10.19287 -10.19256 -10.19231 -10.19226 -10.19216
 Alpha  occ. eigenvalues --  -10.19215 -10.19210 -10.19208 -10.19205 -10.19190
 Alpha  occ. eigenvalues --  -10.19182 -10.19181 -10.19166 -10.19162 -10.19153
 Alpha  occ. eigenvalues --  -10.19139 -10.19134 -10.19128 -10.19117 -10.19114
 Alpha  occ. eigenvalues --  -10.19095 -10.19090 -10.19078 -10.19070 -10.19063
 Alpha  occ. eigenvalues --  -10.19040 -10.19016 -10.18965 -10.18937 -10.18010
 Alpha  occ. eigenvalues --  -10.17915  -0.82910  -0.82837  -0.82445  -0.82138
 Alpha  occ. eigenvalues --   -0.81659  -0.81068  -0.80428  -0.79662  -0.78819
 Alpha  occ. eigenvalues --   -0.77884  -0.76860  -0.75769  -0.74544  -0.73373
 Alpha  occ. eigenvalues --   -0.72058  -0.70751  -0.69851  -0.68385  -0.65065
 Alpha  occ. eigenvalues --   -0.63061  -0.62287  -0.61303  -0.59667  -0.58594
 Alpha  occ. eigenvalues --   -0.57641  -0.56883  -0.56854  -0.56178  -0.55874
 Alpha  occ. eigenvalues --   -0.55629  -0.55128  -0.55002  -0.54506  -0.53019
 Alpha  occ. eigenvalues --   -0.52507  -0.50139  -0.50078  -0.48752  -0.48329
 Alpha  occ. eigenvalues --   -0.47827  -0.47399  -0.46736  -0.46470  -0.45619
 Alpha  occ. eigenvalues --   -0.45256  -0.44739  -0.43916  -0.43547  -0.42814
 Alpha  occ. eigenvalues --   -0.42446  -0.41442  -0.41035  -0.40368  -0.40241
 Alpha  occ. eigenvalues --   -0.39324  -0.38936  -0.38442  -0.38209  -0.37877
 Alpha  occ. eigenvalues --   -0.37587  -0.37362  -0.37038  -0.36601  -0.36302
 Alpha  occ. eigenvalues --   -0.35988  -0.35893  -0.35721  -0.35234  -0.35138
 Alpha  occ. eigenvalues --   -0.35000  -0.34669  -0.34497  -0.34415  -0.34257
 Alpha  occ. eigenvalues --   -0.34053  -0.33662  -0.33220  -0.33194  -0.32909
 Alpha  occ. eigenvalues --   -0.32096  -0.31121  -0.30036  -0.28846  -0.27524
 Alpha  occ. eigenvalues --   -0.26110  -0.24576  -0.22985  -0.21331  -0.19638
 Alpha  occ. eigenvalues --   -0.18182  -0.16886
 Alpha virt. eigenvalues --   -0.08440  -0.06613  -0.05289  -0.03548  -0.01536
 Alpha virt. eigenvalues --    0.00077   0.01982   0.03770   0.05084   0.06840
 Alpha virt. eigenvalues --    0.07806   0.07818   0.08298   0.08657   0.08791
 Alpha virt. eigenvalues --    0.09145   0.09470   0.09711   0.09886   0.09901
 Alpha virt. eigenvalues --    0.10593   0.10784   0.11296   0.11562   0.11730
 Alpha virt. eigenvalues --    0.12062   0.12465   0.12514   0.12674   0.13134
 Alpha virt. eigenvalues --    0.13520   0.14064   0.14236   0.14258   0.14312
 Alpha virt. eigenvalues --    0.14457   0.14710   0.14921   0.15350   0.15463
 Alpha virt. eigenvalues --    0.15537   0.16091   0.16334   0.16665   0.17850
 Alpha virt. eigenvalues --    0.18192   0.19074   0.19535   0.19908   0.20354
 Alpha virt. eigenvalues --    0.20822   0.21108   0.21574   0.22518   0.22870
 Alpha virt. eigenvalues --    0.25879   0.25890   0.27142   0.27306   0.28425
 Alpha virt. eigenvalues --    0.28613   0.29051   0.30138   0.30386   0.31364
 Alpha virt. eigenvalues --    0.31906   0.32640   0.32745   0.33219   0.33581
 Alpha virt. eigenvalues --    0.33868   0.34984   0.35938   0.36196   0.36523
 Alpha virt. eigenvalues --    0.37130   0.37807   0.38321   0.38617   0.39768
 Alpha virt. eigenvalues --    0.41059   0.41635   0.41706   0.41901   0.42051
 Alpha virt. eigenvalues --    0.42809   0.44198   0.44558   0.44954   0.45692
 Alpha virt. eigenvalues --    0.47559   0.48692   0.48873   0.51061   0.51339
 Alpha virt. eigenvalues --    0.51626   0.51833   0.52084   0.52558   0.52898
 Alpha virt. eigenvalues --    0.53031   0.53661   0.53724   0.54356   0.54539
 Alpha virt. eigenvalues --    0.54926   0.55393   0.55769   0.56372   0.56483
 Alpha virt. eigenvalues --    0.57039   0.57335   0.57498   0.57664   0.57701
 Alpha virt. eigenvalues --    0.58152   0.58777   0.58798   0.58845   0.58926
 Alpha virt. eigenvalues --    0.59005   0.59215   0.59327   0.59923   0.60106
 Alpha virt. eigenvalues --    0.60311   0.60735   0.60927   0.61181   0.61557
 Alpha virt. eigenvalues --    0.61830   0.61899   0.62350   0.63051   0.63131
 Alpha virt. eigenvalues --    0.63397   0.63666   0.64029   0.64445   0.64587
 Alpha virt. eigenvalues --    0.65090   0.65155   0.65366   0.65408   0.65851
 Alpha virt. eigenvalues --    0.65988   0.66468   0.66485   0.66648   0.67102
 Alpha virt. eigenvalues --    0.67952   0.68143   0.68220   0.68449   0.68640
 Alpha virt. eigenvalues --    0.69777   0.69950   0.70730   0.71915   0.72605
 Alpha virt. eigenvalues --    0.73730   0.74869   0.75270   0.75796   0.76212
 Alpha virt. eigenvalues --    0.78755   0.78806   0.79525   0.79717   0.80582
 Alpha virt. eigenvalues --    0.80911   0.81572   0.81839   0.82764   0.83034
 Alpha virt. eigenvalues --    0.83453   0.83830   0.84444   0.84628   0.84791
 Alpha virt. eigenvalues --    0.84864   0.85217   0.85598   0.85984   0.86200
 Alpha virt. eigenvalues --    0.86294   0.86717   0.86938   0.87187   0.87248
 Alpha virt. eigenvalues --    0.87573   0.87687   0.87996   0.88282   0.88425
 Alpha virt. eigenvalues --    0.89095   0.89392   0.89795   0.90759   0.91041
 Alpha virt. eigenvalues --    0.91505   0.91646   0.92034   0.92317   0.92893
 Alpha virt. eigenvalues --    0.93004   0.93484   0.93726   0.94160   0.94817
 Alpha virt. eigenvalues --    0.95796   0.96359   0.97376   0.97589   0.98962
 Alpha virt. eigenvalues --    1.00067   1.02370   1.02837   1.03238   1.03316
 Alpha virt. eigenvalues --    1.03467   1.04173   1.04229   1.05048   1.05183
 Alpha virt. eigenvalues --    1.05809   1.06130   1.06785   1.07382   1.07792
 Alpha virt. eigenvalues --    1.08610   1.09096   1.09386   1.10268   1.10376
 Alpha virt. eigenvalues --    1.10723   1.11481   1.12132   1.13105   1.16870
 Alpha virt. eigenvalues --    1.17144   1.17821   1.18783   1.19269   1.20742
 Alpha virt. eigenvalues --    1.21153   1.21400   1.22369   1.23138   1.24450
 Alpha virt. eigenvalues --    1.26587   1.27756   1.28192   1.29048   1.29442
 Alpha virt. eigenvalues --    1.29610   1.29789   1.29970   1.30017   1.30471
 Alpha virt. eigenvalues --    1.30558   1.31019   1.31223   1.31275   1.31466
 Alpha virt. eigenvalues --    1.31706   1.31875   1.32285   1.32527   1.32632
 Alpha virt. eigenvalues --    1.32701   1.32819   1.33075   1.33387   1.33754
 Alpha virt. eigenvalues --    1.34491   1.34577   1.36563   1.36835   1.37740
 Alpha virt. eigenvalues --    1.38495   1.38577   1.40748   1.40753   1.42464
 Alpha virt. eigenvalues --    1.42990   1.43258   1.43942   1.44168   1.45742
 Alpha virt. eigenvalues --    1.45962   1.46550   1.46820   1.47125   1.47974
 Alpha virt. eigenvalues --    1.48445   1.48649   1.49243   1.49903   1.50336
 Alpha virt. eigenvalues --    1.50646   1.51394   1.51517   1.51839   1.51904
 Alpha virt. eigenvalues --    1.52248   1.53218   1.53711   1.57557   1.68097
 Alpha virt. eigenvalues --    1.73962   1.74835   1.75359   1.76315   1.76473
 Alpha virt. eigenvalues --    1.76565   1.76594   1.76757   1.76872   1.77062
 Alpha virt. eigenvalues --    1.77280   1.77643   1.77964   1.78105   1.78321
 Alpha virt. eigenvalues --    1.78698   1.78863   1.83008   1.83106   1.85836
 Alpha virt. eigenvalues --    1.85899   1.86250   1.86256   1.87642   1.87909
 Alpha virt. eigenvalues --    1.89723   1.89834   1.90626   1.91450   1.91921
 Alpha virt. eigenvalues --    1.92082   1.92649   1.92805   1.93162   1.93223
 Alpha virt. eigenvalues --    1.93561   1.93851   1.94492   1.94610   1.94762
 Alpha virt. eigenvalues --    1.95398   1.95564   1.96155   1.96516   1.97511
 Alpha virt. eigenvalues --    1.98133   1.98762   1.99305   1.99829   2.01676
 Alpha virt. eigenvalues --    2.02303   2.03270   2.03555   2.03673   2.04507
 Alpha virt. eigenvalues --    2.05245   2.05396   2.07252   2.07770   2.07899
 Alpha virt. eigenvalues --    2.08973   2.09401   2.10207   2.10240   2.10666
 Alpha virt. eigenvalues --    2.11191   2.11867   2.12472   2.14073   2.14624
 Alpha virt. eigenvalues --    2.15447   2.15943   2.16282   2.16371   2.17588
 Alpha virt. eigenvalues --    2.18001   2.18128   2.18407   2.19612   2.20652
 Alpha virt. eigenvalues --    2.21104   2.21653   2.21854   2.22293   2.23113
 Alpha virt. eigenvalues --    2.23460   2.24291   2.24558   2.25522   2.26792
 Alpha virt. eigenvalues --    2.27232   2.28661   2.28968   2.30021   2.30982
 Alpha virt. eigenvalues --    2.31676   2.32917   2.33654   2.34180   2.35529
 Alpha virt. eigenvalues --    2.36554   2.36677   2.37387   2.38277   2.38475
 Alpha virt. eigenvalues --    2.40808   2.41441   2.41598   2.42830   2.44087
 Alpha virt. eigenvalues --    2.44786   2.44800   2.45153   2.46031   2.46394
 Alpha virt. eigenvalues --    2.46850   2.46963   2.48119   2.48181   2.48460
 Alpha virt. eigenvalues --    2.48774   2.48925   2.49749   2.50320   2.50350
 Alpha virt. eigenvalues --    2.50423   2.50820   2.51618   2.51678   2.52065
 Alpha virt. eigenvalues --    2.52182   2.52753   2.53242   2.53467   2.53556
 Alpha virt. eigenvalues --    2.54133   2.54628   2.54894   2.55505   2.55825
 Alpha virt. eigenvalues --    2.56385   2.56561   2.57387   2.57956   2.58431
 Alpha virt. eigenvalues --    2.58588   2.59284   2.59864   2.60305   2.60646
 Alpha virt. eigenvalues --    2.60837   2.61917   2.62152   2.62439   2.63453
 Alpha virt. eigenvalues --    2.63656   2.63813   2.64122   2.65569   2.65853
 Alpha virt. eigenvalues --    2.65951   2.66833   2.67071   2.67383   2.67979
 Alpha virt. eigenvalues --    2.68334   2.68727   2.68744   2.69221   2.69760
 Alpha virt. eigenvalues --    2.69852   2.70062   2.70329   2.70629   2.70937
 Alpha virt. eigenvalues --    2.71462   2.71846   2.72319   2.73404   2.74174
 Alpha virt. eigenvalues --    2.75935   2.78839   2.79284   2.79834   2.81041
 Alpha virt. eigenvalues --    2.82775   2.83889   2.86048   2.86532   2.86613
 Alpha virt. eigenvalues --    2.88126   2.88297   2.88991   2.91285   2.91390
 Alpha virt. eigenvalues --    2.91421   2.91861   2.92112   2.92477   2.92935
 Alpha virt. eigenvalues --    2.93858   2.94696   2.95061   2.95772   2.95983
 Alpha virt. eigenvalues --    2.97161   2.97383   2.98557   2.98728   2.99445
 Alpha virt. eigenvalues --    2.99730   2.99903   3.00083   3.01486   3.03092
 Alpha virt. eigenvalues --    3.10700   3.11361   3.16049   3.20286   3.25954
 Alpha virt. eigenvalues --    3.28030   3.33037   3.33247   3.33958   3.34965
 Alpha virt. eigenvalues --    3.35301   3.35383   3.35455   3.35855   3.36545
 Alpha virt. eigenvalues --    3.37760   3.38580   3.41259   3.41341   3.44644
 Alpha virt. eigenvalues --    3.45802   3.48169   3.49100   3.51581   3.52744
 Alpha virt. eigenvalues --    3.53112   3.54246   3.55461   3.56267   3.57308
 Alpha virt. eigenvalues --    3.59759   3.60776   3.61407   3.63506   3.65327
 Alpha virt. eigenvalues --    3.65879   3.66338   3.66930   3.71038   3.72877
 Alpha virt. eigenvalues --    3.76303   3.79250   4.10818   4.12250   4.12519
 Alpha virt. eigenvalues --    4.13562   4.13746   4.13837   4.13953   4.14213
 Alpha virt. eigenvalues --    4.14382   4.14959   4.15390   4.16059   4.17115
 Alpha virt. eigenvalues --    4.17898   4.19124   4.20639   4.21385   4.25752
 Alpha virt. eigenvalues --    4.26714   4.30333   4.31399   4.34793   4.37567
 Alpha virt. eigenvalues --    4.40508   4.44259   4.47834   4.51361   4.55519
 Alpha virt. eigenvalues --    4.58987   4.62622   4.66116   4.68913   4.71608
 Alpha virt. eigenvalues --    4.73790   4.75052   4.76622
          Condensed to atoms (all electrons):
 Mulliken charges:
               1
     1  C   -0.238465
     2  C   -0.048950
     3  C   -0.102281
     4  C   -0.055137
     5  C   -0.077227
     6  C   -0.081825
     7  C   -0.079649
     8  C   -0.079735
     9  C   -0.078792
    10  C   -0.080432
    11  C   -0.081859
    12  C   -0.077061
    13  C   -0.055856
    14  C   -0.106295
    15  C   -0.076041
    16  C   -0.085189
    17  C   -0.082222
    18  C   -0.079274
    19  C   -0.079336
    20  C   -0.082182
    21  C   -0.085242
    22  C   -0.075969
    23  C   -0.106360
    24  C   -0.055796
    25  C   -0.077139
    26  C   -0.081806
    27  C   -0.080530
    28  C   -0.078680
    29  C   -0.080277
    30  C   -0.079498
    31  C   -0.079355
    32  C   -0.080579
    33  C   -0.076963
    34  C   -0.077783
    35  C   -0.033650
    36  C   -0.251960
    37  H    0.094626
    38  H    0.084340
    39  H    0.080163
    40  H    0.080515
    41  H    0.081238
    42  H    0.080431
    43  H    0.080739
    44  H    0.080253
    45  H    0.080635
    46  H    0.080393
    47  H    0.080683
    48  H    0.080835
    49  H    0.081955
    50  H    0.080263
    51  H    0.080215
    52  H    0.079588
    53  H    0.080752
    54  H    0.080187
    55  H    0.080176
    56  H    0.080745
    57  H    0.079573
    58  H    0.080194
    59  H    0.080201
    60  H    0.081904
    61  H    0.080740
    62  H    0.080601
    63  H    0.080256
    64  H    0.080504
    65  H    0.080059
    66  H    0.080441
    67  H    0.080158
    68  H    0.080679
    69  H    0.080907
    70  H    0.081627
    71  H    0.083693
    72  H    0.095511
    73  H    0.095366
    74  H    0.098254
 Sum of Mulliken charges =  -0.00000
 Mulliken charges with hydrogens summed into heavy atoms:
               1
     1  C   -0.045585
     2  C    0.035390
     3  C   -0.022118
     4  C    0.025377
     5  C    0.004011
     6  C   -0.001394
     7  C    0.001089
     8  C    0.000518
     9  C    0.001843
    10  C   -0.000039
    11  C   -0.001175
    12  C    0.003774
    13  C    0.026100
    14  C   -0.026031
    15  C    0.004173
    16  C   -0.005601
    17  C   -0.001470
    18  C    0.000912
    19  C    0.000839
    20  C   -0.001437
    21  C   -0.005669
    22  C    0.004224
    23  C   -0.026159
    24  C    0.026108
    25  C    0.003601
    26  C   -0.001205
    27  C   -0.000274
    28  C    0.001823
    29  C   -0.000219
    30  C    0.000943
    31  C    0.000803
    32  C    0.000100
    33  C    0.003944
    34  C    0.003844
    35  C    0.050042
    36  C   -0.061083
 Electronic spatial extent (au):  <R**2>=         134164.2696
 Charge=             -0.0000 electrons
 Dipole moment (field-independent basis, Debye):
    X=              0.0714    Y=             -0.0802    Z=              0.0633  Tot=              0.1246
 Quadrupole moment (field-independent basis, Debye-Ang):
   XX=           -206.8539   YY=           -189.7930   ZZ=           -233.1479
   XY=             -2.8390   XZ=              0.2295   YZ=             -3.6846
 Traceless Quadrupole moment (field-independent basis, Debye-Ang):
   XX=              3.0777   YY=             20.1386   ZZ=            -23.2163
   XY=             -2.8390   XZ=              0.2295   YZ=             -3.6846
 Octapole moment (field-independent basis, Debye-Ang**2):
  XXX=             10.1811  YYY=             -5.3970  ZZZ=              0.1703  XYY=            -21.8204
  XXY=            -85.1415  XXZ=             38.8585  XZZ=              7.2886  YZZ=             -0.6033
  YYZ=              0.7764  XYZ=            -47.8040
 Hexadecapole moment (field-independent basis, Debye-Ang**3):
 XXXX=        -176688.3527 YYYY=          -3666.9450 ZZZZ=           -293.0588 XXXY=          -1438.8276
 XXXZ=            -17.0171 YYYX=            -93.6667 YYYZ=            -36.2428 ZZZX=              4.5750
 ZZZY=             -3.9343 XXYY=         -28375.0682 XXZZ=         -33770.7894 YYZZ=           -783.9212
 XXYZ=           -455.3619 YYXZ=           -108.5794 ZZXY=             -1.4015
 N-N= 2.418824335707D+03 E-N=-8.063197914085D+03  KE= 1.380510708817D+03
 Calling FoFJK, ICntrl=      2127 FMM=T ISym2X=0 I1Cent= 0 IOpClX= 0 NMat=1 NMatS=1 NMatT=0.
 ***** Axes restored to original set *****
 -------------------------------------------------------------------
 Center     Atomic                   Forces (Hartrees/Bohr)
 Number     Number              X              Y              Z
 -------------------------------------------------------------------
      1        6          -0.007239435   -0.000395527    0.003358905
      2        6           0.016331439   -0.004451047   -0.000980942
      3        6          -0.025106973    0.008339457   -0.000387445
      4        6           0.024006614   -0.020544072    0.015899963
      5        6          -0.031963414    0.017615914   -0.008978771
      6        6           0.031373941   -0.018397052    0.009919132
      7        6          -0.032251772    0.018553355   -0.009502630
      8        6           0.032651536   -0.018790332    0.009279503
      9        6          -0.032788199    0.018754780   -0.008791258
     10        6           0.033430315   -0.018944846    0.008279238
     11        6          -0.033132200    0.018635990   -0.007564840
     12        6           0.035150447   -0.018507855    0.005990077
     13        6          -0.030527106    0.020666863   -0.011078579
     14        6           0.033806008   -0.012452051   -0.003242570
     15        6          -0.030041050    0.012527789    0.001063194
     16        6           0.031117757   -0.011819290   -0.002736263
     17        6          -0.030563853    0.014437421   -0.001501297
     18        6           0.029857752   -0.014990859    0.001138358
     19        6          -0.030870291    0.012262113    0.003829709
     20        6           0.031379800   -0.012184445   -0.003605971
     21        6          -0.030164276    0.014268230   -0.000802664
     22        6           0.029607760   -0.013466629   -0.001103494
     23        6          -0.032479637    0.015972168   -0.001067617
     24        6           0.034892325   -0.008463986   -0.013790389
     25        6          -0.037276762    0.012456693    0.008296930
     26        6           0.035770568   -0.011080922   -0.009865173
     27        6          -0.036273256    0.010794505    0.010455506
     28        6           0.035655058   -0.010345109   -0.010852748
     29        6          -0.035644169    0.009946637    0.011269958
     30        6           0.035054216   -0.009626588   -0.011448146
     31        6          -0.034732852    0.009050684    0.012075167
     32        6           0.033637013   -0.008652991   -0.011965377
     33        6          -0.032402764    0.007342363    0.013452706
     34        6           0.028581838   -0.005972537   -0.012963881
     35        6          -0.019576368    0.000937858    0.015470691
     36        6           0.008708943   -0.003415734   -0.000586994
     37        1           0.000255787    0.001332699   -0.001762847
     38        1           0.000658444   -0.001854546    0.002095516
     39        1           0.000172625   -0.000519577    0.000622963
     40        1           0.002089941    0.000954993   -0.001960304
     41        1          -0.003245595    0.000565694    0.000738737
     42        1           0.003227584   -0.000469176   -0.000653969
     43        1          -0.003160840    0.000576182    0.000814596
     44        1           0.003224100   -0.000493627   -0.000648205
     45        1          -0.003138698    0.000601028    0.000917550
     46        1           0.003212822   -0.000505338   -0.000696514
     47        1          -0.003116260    0.000602841    0.001059920
     48        1           0.003273976   -0.000541300   -0.000793997
     49        1          -0.001939983   -0.000780883    0.002178559
     50        1           0.000064755    0.000439108   -0.000306634
     51        1           0.003888604    0.000098559   -0.002257850
     52        1          -0.001850460   -0.000538105    0.002168467
     53        1           0.001153685   -0.001903592    0.002101606
     54        1          -0.002426835    0.002605336   -0.002315684
     55        1           0.003415380    0.000125167   -0.002479845
     56        1          -0.001970341   -0.000397174    0.002272538
     57        1           0.001029303   -0.001755663    0.002108550
     58        1          -0.002913862    0.002607426   -0.002286903
     59        1           0.000123076    0.000100823   -0.000447357
     60        1           0.001060954   -0.001663557    0.002256082
     61        1          -0.002860901    0.001685345   -0.000762128
     62        1           0.002696373   -0.001763492    0.000877323
     63        1          -0.002822021    0.001593410   -0.000718405
     64        1           0.002738454   -0.001697005    0.000790778
     65        1          -0.002840603    0.001562964   -0.000708175
     66        1           0.002772561   -0.001649117    0.000753140
     67        1          -0.002837671    0.001542894   -0.000708272
     68        1           0.002790386   -0.001597539    0.000716839
     69        1          -0.002812426    0.001526358   -0.000710794
     70        1           0.003001433   -0.001651005    0.000708674
     71        1          -0.004222090    0.002724950   -0.001973961
     72        1           0.002131078   -0.001136315    0.000443650
     73        1           0.000435111   -0.002070510    0.003968620
     74        1           0.000763198    0.001680795   -0.002364250
 -------------------------------------------------------------------
 Cartesian Forces:  Max     0.037276762 RMS     0.014087517

 GradGradGradGradGradGradGradGradGradGradGradGradGradGradGradGradGradGrad
 Berny optimization.
 FormGI is forming the generalized inverse of G from B-inverse, IUseBI=4.
 Internal  Forces:  Max     0.022726679 RMS     0.007505174
 Search for a local minimum.
 Step number   1 out of a maximum of  331
 All quantities printed in internal units (Hartrees-Bohrs-Radians)
 Mixed Optimization -- RFO/linear search
 Second derivative matrix not updated -- first step.
 ITU=  0
     Eigenvalues ---    0.00877   0.00877   0.00937   0.00944   0.00951
     Eigenvalues ---    0.00951   0.01042   0.01043   0.01045   0.01053
     Eigenvalues ---    0.01054   0.01054   0.01054   0.01055   0.01055
     Eigenvalues ---    0.01056   0.01064   0.01852   0.01853   0.01854
     Eigenvalues ---    0.01855   0.01892   0.01893   0.01900   0.01901
     Eigenvalues ---    0.01906   0.01910   0.01911   0.01922   0.01958
     Eigenvalues ---    0.01959   0.01960   0.01969   0.01969   0.01969
     Eigenvalues ---    0.01974   0.01974   0.01976   0.01976   0.01976
     Eigenvalues ---    0.01976   0.01977   0.01977   0.01977   0.01977
     Eigenvalues ---    0.01977   0.01977   0.01977   0.01978   0.01982
     Eigenvalues ---    0.01998   0.02747   0.02748   0.02749   0.02749
     Eigenvalues ---    0.02822   0.02824   0.02825   0.02886   0.02886
     Eigenvalues ---    0.02886   0.02887   0.02888   0.02890   0.02890
     Eigenvalues ---    0.02891   0.02891   0.02891   0.02891   0.02950
     Eigenvalues ---    0.02950   0.15999   0.15999   0.15999   0.15999
     Eigenvalues ---    0.15999   0.15999   0.15999   0.15999   0.16000
     Eigenvalues ---    0.16000   0.16000   0.16000   0.16000   0.16000
     Eigenvalues ---    0.16000   0.16000   0.16000   0.16000   0.16000
     Eigenvalues ---    0.16000   0.16000   0.16000   0.16000   0.16000
     Eigenvalues ---    0.16000   0.16000   0.16000   0.16000   0.16000
     Eigenvalues ---    0.16000   0.16000   0.16000   0.16000   0.16000
     Eigenvalues ---    0.16000   0.16000   0.16000   0.16000   0.22000
     Eigenvalues ---    0.22000   0.22000   0.22000   0.22000   0.22000
     Eigenvalues ---    0.22000   0.22000   0.22000   0.22000   0.22000
     Eigenvalues ---    0.22000   0.22000   0.22000   0.22000   0.22000
     Eigenvalues ---    0.22000   0.22000   0.22000   0.22000   0.22000
     Eigenvalues ---    0.22000   0.22000   0.22000   0.22000   0.22000
     Eigenvalues ---    0.22000   0.22000   0.22000   0.22000   0.22000
     Eigenvalues ---    0.22000   0.22000   0.22000   0.33276   0.33278
     Eigenvalues ---    0.33773   0.33833   0.33890   0.33893   0.34673
     Eigenvalues ---    0.34678   0.34692   0.34767   0.34772   0.34772
     Eigenvalues ---    0.34777   0.34779   0.34781   0.34787   0.34858
     Eigenvalues ---    0.35047   0.35053   0.35055   0.35058   0.35062
     Eigenvalues ---    0.35064   0.35066   0.35067   0.35073   0.35086
     Eigenvalues ---    0.35090   0.35094   0.35094   0.35099   0.35101
     Eigenvalues ---    0.35106   0.35106   0.35113   0.35149   0.35157
     Eigenvalues ---    0.35182   0.35202   0.35279   0.35300   0.35360
     Eigenvalues ---    0.35366   0.35565   0.35565   0.35573   0.35694
     Eigenvalues ---    0.35701   0.35718   0.35730   0.35737   0.35892
     Eigenvalues ---    0.35898   0.35903   0.35910   0.54978   0.54987
     Eigenvalues ---    0.54999   0.55008   0.56197   0.56222   0.56249
     Eigenvalues ---    0.57260   0.57268   0.57287   0.57296   0.57325
     Eigenvalues ---    0.57333   0.57348   0.57350   0.57352   0.57356
     Eigenvalues ---    0.58362
 RFO step:  Lambda=-4.95613476D-02 EMin= 8.77243594D-03
 Linear search not attempted -- first point.
 Maximum step size (   0.300) exceeded in Quadratic search.
    -- Step size scaled by   0.773
 Iteration  1 RMS(Cart)=  0.23124588 RMS(Int)=  0.00130265
 Iteration  2 RMS(Cart)=  0.00915005 RMS(Int)=  0.00000720
 Iteration  3 RMS(Cart)=  0.00001951 RMS(Int)=  0.00000590
 Iteration  4 RMS(Cart)=  0.00000000 RMS(Int)=  0.00000590
 Variable       Old X    -DE/DX   Delta X   Delta X   Delta X     New X
                                 (Linear)    (Quad)   (Total)
    R1        2.53177   0.00392   0.00000   0.00487   0.00487   2.53664
    R2        2.04525   0.00184   0.00000   0.00349   0.00349   2.04875
    R3        2.05095  -0.00009   0.00000  -0.00017  -0.00017   2.05078
    R4        2.80912  -0.01133   0.00000  -0.02256  -0.02256   2.78656
    R5        2.05190   0.00145   0.00000   0.00279   0.00279   2.05469
    R6        2.54039   0.01055   0.00000   0.01332   0.01332   2.55371
    R7        2.05349   0.00083   0.00000   0.00159   0.00159   2.05508
    R8        2.79478  -0.01957   0.00000  -0.03814  -0.03814   2.75664
    R9        2.04767   0.00193   0.00000   0.00368   0.00368   2.05135
   R10        2.53154   0.02134   0.00000   0.02649   0.02649   2.55803
   R11        2.05523  -0.00014   0.00000  -0.00028  -0.00028   2.05495
   R12        2.79332  -0.01939   0.00000  -0.03771  -0.03771   2.75562
   R13        2.05557  -0.00015   0.00000  -0.00029  -0.00029   2.05528
   R14        2.53116   0.02215   0.00000   0.02747   0.02747   2.55863
   R15        2.05511  -0.00011   0.00000  -0.00021  -0.00021   2.05490
   R16        2.79338  -0.01967   0.00000  -0.03825  -0.03825   2.75513
   R17        2.05567  -0.00021   0.00000  -0.00040  -0.00040   2.05527
   R18        2.53122   0.02246   0.00000   0.02786   0.02786   2.55908
   R19        2.05502  -0.00009   0.00000  -0.00017  -0.00017   2.05486
   R20        2.79346  -0.02004   0.00000  -0.03897  -0.03897   2.75450
   R21        2.05575  -0.00023   0.00000  -0.00044  -0.00044   2.05531
   R22        2.53170   0.02265   0.00000   0.02812   0.02812   2.55982
   R23        2.05491  -0.00004   0.00000  -0.00007  -0.00007   2.05484
   R24        2.79502  -0.02142   0.00000  -0.04175  -0.04175   2.75326
   R25        2.05586  -0.00026   0.00000  -0.00051  -0.00051   2.05535
   R26        2.54084   0.01536   0.00000   0.01941   0.01941   2.56025
   R27        2.04754   0.00185   0.00000   0.00353   0.00353   2.05107
   R28        2.80811  -0.01806   0.00000  -0.03592  -0.03592   2.77219
   R29        2.05421   0.00049   0.00000   0.00095   0.00095   2.05516
   R30        2.55125   0.00616   0.00000   0.00794   0.00794   2.55919
   R31        2.04233   0.00398   0.00000   0.00752   0.00752   2.04986
   R32        2.81866  -0.02082   0.00000  -0.04208  -0.04208   2.77658
   R33        2.04562   0.00288   0.00000   0.00548   0.00548   2.05110
   R34        2.55151   0.00637   0.00000   0.00822   0.00822   2.55973
   R35        2.04495   0.00301   0.00000   0.00572   0.00572   2.05067
   R36        2.81014  -0.01897   0.00000  -0.03784  -0.03784   2.77231
   R37        2.04241   0.00387   0.00000   0.00732   0.00732   2.04973
   R38        2.55133   0.00647   0.00000   0.00833   0.00833   2.55966
   R39        2.04251   0.00384   0.00000   0.00727   0.00727   2.04978
   R40        2.81869  -0.02083   0.00000  -0.04210  -0.04210   2.77659
   R41        2.04505   0.00298   0.00000   0.00567   0.00567   2.05072
   R42        2.55144   0.00605   0.00000   0.00780   0.00780   2.55924
   R43        2.04551   0.00291   0.00000   0.00554   0.00554   2.05105
   R44        2.80815  -0.01807   0.00000  -0.03594  -0.03594   2.77221
   R45        2.04222   0.00402   0.00000   0.00760   0.00760   2.04982
   R46        2.54062   0.01545   0.00000   0.01951   0.01951   2.56013
   R47        2.05433   0.00046   0.00000   0.00088   0.00088   2.05521
   R48        2.79510  -0.02142   0.00000  -0.04177  -0.04177   2.75333
   R49        2.04767   0.00182   0.00000   0.00347   0.00347   2.05114
   R50        2.53147   0.02273   0.00000   0.02821   0.02821   2.55967
   R51        2.05599  -0.00030   0.00000  -0.00059  -0.00059   2.05540
   R52        2.79355  -0.02002   0.00000  -0.03894  -0.03894   2.75461
   R53        2.05504  -0.00007   0.00000  -0.00014  -0.00014   2.05490
   R54        2.53100   0.02249   0.00000   0.02789   0.02789   2.55889
   R55        2.05589  -0.00027   0.00000  -0.00052  -0.00052   2.05536
   R56        2.79346  -0.01959   0.00000  -0.03810  -0.03810   2.75536
   R57        2.05515  -0.00012   0.00000  -0.00023  -0.00023   2.05491
   R58        2.53096   0.02209   0.00000   0.02739   0.02739   2.55835
   R59        2.05580  -0.00024   0.00000  -0.00047  -0.00047   2.05533
   R60        2.79336  -0.01912   0.00000  -0.03719  -0.03719   2.75617
   R61        2.05522  -0.00014   0.00000  -0.00026  -0.00026   2.05496
   R62        2.53101   0.02125   0.00000   0.02635   0.02635   2.55736
   R63        2.05571  -0.00021   0.00000  -0.00041  -0.00041   2.05530
   R64        2.79322  -0.01805   0.00000  -0.03509  -0.03509   2.75813
   R65        2.05529  -0.00016   0.00000  -0.00031  -0.00031   2.05498
   R66        2.53103   0.01895   0.00000   0.02350   0.02350   2.55453
   R67        2.05566  -0.00018   0.00000  -0.00035  -0.00035   2.05531
   R68        2.79206  -0.01425   0.00000  -0.02765  -0.02765   2.76441
   R69        2.05536  -0.00022   0.00000  -0.00043  -0.00043   2.05492
   R70        2.52260   0.01199   0.00000   0.01463   0.01463   2.53723
   R71        2.05380   0.00058   0.00000   0.00112   0.00112   2.05492
   R72        2.05224  -0.00015   0.00000  -0.00029  -0.00029   2.05195
   R73        2.05084   0.00014   0.00000   0.00027   0.00027   2.05112
    A1        2.14549  -0.00034   0.00000  -0.00126  -0.00126   2.14423
    A2        2.08478   0.00325   0.00000   0.01197   0.01197   2.09675
    A3        2.05291  -0.00290   0.00000  -0.01070  -0.01070   2.04221
    A4        2.18359   0.00867   0.00000   0.02484   0.02484   2.20843
    A5        2.05640  -0.00179   0.00000  -0.00304  -0.00304   2.05336
    A6        2.04320  -0.00688   0.00000  -0.02180  -0.02181   2.02139
    A7        2.17831   0.00818   0.00000   0.02344   0.02344   2.20175
    A8        2.03080  -0.00402   0.00000  -0.01147  -0.01147   2.01933
    A9        2.07407  -0.00416   0.00000  -0.01197  -0.01197   2.06210
   A10        2.10668   0.01086   0.00000   0.03114   0.03114   2.13782
   A11        2.11303  -0.00305   0.00000  -0.00680  -0.00680   2.10623
   A12        2.06347  -0.00781   0.00000  -0.02434  -0.02434   2.03913
   A13        2.10882   0.01219   0.00000   0.03493   0.03493   2.14375
   A14        2.08405  -0.00956   0.00000  -0.03024  -0.03024   2.05382
   A15        2.09030  -0.00263   0.00000  -0.00468  -0.00468   2.08562
   A16        2.11487   0.01189   0.00000   0.03409   0.03409   2.14896
   A17        2.08878  -0.00253   0.00000  -0.00445  -0.00445   2.08433
   A18        2.07952  -0.00936   0.00000  -0.02963  -0.02963   2.04989
   A19        2.10540   0.01327   0.00000   0.03805   0.03804   2.14344
   A20        2.08520  -0.01004   0.00000  -0.03156  -0.03156   2.05364
   A21        2.09256  -0.00323   0.00000  -0.00647  -0.00647   2.08609
   A22        2.11740   0.01165   0.00000   0.03339   0.03339   2.15079
   A23        2.08734  -0.00241   0.00000  -0.00411  -0.00411   2.08323
[...]
 ,0.00016238,0.00042678,-0.00438422,-0.00103789,0.01231425,0.00712361,-
 0.01381420,0.11337826,0.08550386,-0.23355841,0.00000005,0.00000005,0.0
 0000005,0.00000004,0.00000011,0.00000003,0.00000007,0.00000010,0.00000
 001,0.00000003,0.00000005,0.00000003,0.00000003,0.00000003,0.00000006,
 0.00000003,0.,0.00000006,0.00000002,0.00000002,0.00000003,0.,-0.000000
 03,0.,0.,-0.00000004,0.00000002,0.,-0.00000002,0.,0.,-0.00000003,0.000
 00003,0.00000003,-0.00000002,0.00000003,0.,0.00000001,0.00000003,0.000
 00008,0.,0.00000002,-0.00000001,0.00000007,0.00000004,-0.00000003,0.00
 000006,0.00000009,0.00000005,-0.00000004,0.00000019,0.00000012,-0.0000
 0006,0.00000011,-0.00000004,0.00000007,0.00000014,-0.00000005,0.000000
 11,0.00000019,0.00000012,0.,0.00000030,0.00000023,-0.00000002,0.000000
 17,-0.00000010,0.00000017,0.00000038,-0.00000019,0.00000015,0.00000045
 ,-0.00000012,-0.00000007,0.00000067,-0.00000035,0.00000033,0.00000081,
 0.00000015,0.00000048,0.00000166,-0.00000086,0.00000060,0.00000148,-0.
 00000163,-0.00000520,-0.00000018,-0.00000303,0.00000185,0.00000331,0.0
 0000582,0.00000103,0.00001066,-0.00003341,0.00001433,0.00000326,0.0001
 6785,-0.00000520,0.00023949,-0.00102596,0.00039487,0.00034995,-0.00047
 291,0.00637348,0.00168386,-0.12394902,-0.09689796,0.24592891,-0.000004
 15,0.00000139,0.00000027,0.00000549,0.00000021,-0.00000309,-0.00000464
 ,0.00000020,0.00000200,0.00000197,-0.00000441,0.00000401,-0.00000237,0
 .00000367,-0.00000308,0.00000225,-0.00000472,0.00000424,-0.00000206,0.
 00000380,-0.00000333,0.00000197,-0.00000500,0.00000474,-0.00000161,0.0
 0000405,-0.00000382,0.00000155,-0.00000541,0.00000538,-0.00000118,0.00
 000423,-0.00000425,0.00000127,-0.00000575,0.00000613,-0.00000108,0.000
 00391,-0.00000404,0.00000163,-0.00000860,0.00000865,-0.00000187,0.0000
 0581,-0.00000565,0.00000770,0.00000473,-0.00000912,-0.00000732,-0.0000
 0329,0.00000731,0.00000454,-0.00000987,0.00000962,-0.00000505,0.000009
 23,-0.00000895,0.00001228,0.00000290,-0.00001121,-0.00001335,-0.000003
 56,0.00001265,0.00001065,-0.00001230,0.00001167,-0.00001161,0.00001436
 ,-0.00001436,0.00001769,-0.00000395,-0.00000744,-0.00001821,0.00000640
 ,0.00000229,0.00002515,-0.00000126,-0.00000590,-0.00002554,0.00000912,
 -0.00000024,0.00002621,-0.00002530,-0.00002088,-0.00004062,0.00002194,
 -0.00000151,0.00008506,0.00006938,0.00003620,-0.00012224,0.00002837,-0
 .00001154,-0.00005435,-0.00032467,-0.00039426,-0.00051845,0.00014169,0
 .00025960,0.00233547,0.00397800,-0.00010364,-0.00880155,0.00241166,0.0
 0460383,-0.31065414,0.08950653,0.04264346,0.00000029,-0.00000016,0.000
 00012,-0.00000089,-0.00000001,0.00000056,0.00000043,0.00000009,-0.0000
 0021,-0.00000025,0.00000073,-0.00000065,0.00000005,0.00000015,-0.00000
 014,-0.00000035,0.00000092,-0.00000083,0.,0.00000024,-0.00000023,-0.00
 000039,0.00000097,-0.00000094,-0.00000004,0.00000026,-0.00000030,-0.00
 000044,0.00000110,-0.00000105,-0.00000006,0.00000039,-0.00000040,-0.00
 000050,0.00000127,-0.00000120,0.,0.00000045,-0.00000057,-0.00000115,0.
 00000177,-0.00000143,0.00000072,-0.00000035,0.00000028,-0.00000179,-0.
 00000013,0.00000119,0.00000068,-0.00000002,-0.00000045,-0.00000144,0.0
 0000163,-0.00000128,0.00000070,-0.00000042,0.00000042,-0.00000209,-0.0
 0000007,0.00000145,0.00000089,0.00000022,-0.00000067,-0.00000191,0.000
 00216,-0.00000180,0.00000067,-0.00000062,0.00000058,-0.00000220,-0.000
 00041,0.00000218,-0.00000060,-0.00000030,0.00000158,-0.00000269,-0.000
 00083,0.00000330,-0.00000136,-0.00000133,0.00000139,-0.00000286,-0.000
 00094,0.00000429,0.00000140,0.00000513,0.00000564,-0.00000253,-0.00000
 227,0.00000542,-0.00000759,-0.00001983,-0.00001225,0.00001033,-0.00000
 377,0.00001499,0.00000999,0.00007654,-0.00002957,0.00029375,-0.0002195
 4,-0.00003579,0.00017486,-0.00193772,-0.00158934,-0.00852437,0.0048493
 9,-0.00042162,0.32581181,0.00000307,-0.00000141,-0.00000031,-0.0000042
 7,-0.00000026,0.00000229,0.00000350,-0.00000033,-0.00000157,-0.0000015
 7,0.00000329,-0.00000306,0.00000169,-0.00000293,0.00000241,-0.00000164
 ,0.00000355,-0.00000340,0.00000140,-0.00000301,0.00000269,-0.00000129,
 0.00000389,-0.00000381,0.00000106,-0.00000317,0.00000316,-0.00000091,0
 .00000426,-0.00000438,0.00000063,-0.00000336,0.00000354,-0.00000070,0.
 00000448,-0.00000499,0.00000042,-0.00000323,0.00000354,-0.00000075,0.0
 0000659,-0.00000705,0.00000105,-0.00000409,0.00000389,-0.00000536,-0.0
 0000449,0.00000750,0.00000461,0.00000226,-0.00000503,-0.00000211,0.000
 00764,-0.00000841,0.00000276,-0.00000609,0.00000581,-0.00000802,-0.000
 00417,0.00000981,0.00000759,0.00000235,-0.00000806,-0.00000444,0.00000
 979,-0.00001102,0.00000575,-0.00000865,0.00000831,-0.00001044,-0.00000
 399,0.00000761,0.00000944,0.00000079,-0.00000686,-0.00000740,0.0000042
 4,0.00001752,0.00001018,-0.00000082,-0.00001169,-0.00002948,-0.0000485
 1,-0.00000866,0.00002143,0.00000885,-0.00001347,0.00006769,0.00016536,
 0.00016951,0.00006550,-0.00004410,-0.00008536,-0.00036466,-0.00107135,
 -0.00033189,0.00092861,0.00014709,-0.00046871,0.00287382,0.00536660,0.
 00755473,0.01964498,-0.00172501,-0.00357636,0.08714555,-0.06728370,-0.
 00092281,-0.00000013,0.00000022,-0.00000002,0.00000080,0.00000020,-0.0
 0000041,-0.00000025,0.00000012,0.00000017,0.00000023,-0.00000046,0.000
 00053,0.,-0.00000001,0.00000015,0.00000031,-0.00000065,0.00000069,0.00
 000003,-0.00000012,0.00000020,0.00000030,-0.00000078,0.00000071,0.0000
 0002,-0.00000020,0.00000019,0.00000036,-0.00000089,0.00000083,0.000000
 04,-0.00000027,0.00000027,0.00000042,-0.00000097,0.00000095,0.,-0.0000
 0027,0.00000044,0.00000098,-0.00000129,0.00000111,-0.00000055,0.000000
 42,-0.00000019,0.00000155,0.00000018,-0.00000085,-0.00000055,0.0000001
 9,0.00000046,0.00000127,-0.00000122,0.00000104,-0.00000057,0.00000054,
 -0.00000023,0.00000197,0.00000018,-0.00000105,-0.00000071,0.00000023,0
 .00000068,0.00000176,-0.00000154,0.00000145,-0.00000062,0.00000071,-0.
 00000040,0.00000212,0.00000059,-0.00000158,0.00000082,0.00000134,-0.00
 000047,0.00000280,0.00000103,-0.00000252,0.00000015,-0.00000077,-0.000
 00236,0.00000399,0.00000199,-0.00000296,0.00000645,0.00001474,0.000007
 59,0.00000463,0.00000221,-0.00000530,-0.00002034,-0.00004533,-0.000030
 08,0.00000861,0.00002264,-0.00000201,-0.00000618,0.00009218,0.00008286
 ,0.00004240,-0.00014456,-0.00023690,-0.00210950,-0.00384570,-0.0032928
 7,-0.00973212,0.00526058,0.00173247,-0.09856865,0.06312662,-0.00000220
 ,0.00000075,-0.00000010,0.00000280,0.00000015,-0.00000169,-0.00000233,
 0.00000009,0.00000092,0.00000109,-0.00000223,0.00000196,-0.00000106,0.
 00000196,-0.00000180,0.00000084,-0.00000246,0.00000229,-0.00000078,0.0
 0000207,-0.00000202,0.00000069,-0.00000266,0.00000273,-0.00000054,0.00
 000222,-0.00000223,0.00000047,-0.00000291,0.00000310,-0.00000032,0.000
 00241,-0.00000257,0.00000023,-0.00000316,0.00000357,0.00000007,0.00000
 237,-0.00000278,0.00000003,-0.00000464,0.00000499,-0.00000049,0.000002
 35,-0.00000243,0.00000316,0.00000357,-0.00000563,-0.00000241,-0.000001
 58,0.00000268,0.00000028,-0.00000546,0.00000638,-0.00000106,0.00000313
 ,-0.00000330,0.00000401,0.00000402,-0.00000796,-0.00000319,-0.00000179
 ,0.00000382,0.00000023,-0.00000640,0.00000950,-0.00000162,0.00000306,-
 0.00000402,0.00000242,0.00000348,-0.00001005,-0.00000244,-0.00000482,0
 .00000916,0.00000320,0.00001375,-0.00000986,-0.00000180,-0.00001103,0.
 00001341,-0.00001462,-0.00001137,-0.00004037,-0.00000074,-0.00001373,0
 .00003008,0.00003873,0.00016844,0.00002894,-0.00006738,-0.00006182,0.0
 0006242,-0.00033443,-0.00035740,-0.00069699,-0.00092299,0.00003022,0.0
 0076668,0.00155745,0.00685423,0.00031555,-0.02129763,0.00734727,0.0066
 3766,0.04619115,-0.00241860,-0.05678967,0.00000010,-0.00000005,0.00000
 013,-0.00000056,-0.00000004,0.00000050,0.00000022,-0.00000004,0.000000
 08,-0.00000013,0.00000036,-0.00000026,0.00000003,0.00000009,-0.0000000
 2,-0.00000016,0.00000044,-0.00000035,0.,0.00000011,-0.00000007,-0.0000
 0022,0.00000048,-0.00000049,-0.00000003,0.00000012,-0.00000016,-0.0000
 0024,0.00000056,-0.00000055,-0.00000002,0.00000016,-0.00000018,-0.0000
 0029,0.00000069,-0.00000064,0.,0.00000019,-0.00000024,-0.00000066,0.00
 000090,-0.00000065,0.00000044,-0.00000021,0.00000024,-0.00000115,0.000
 00001,0.00000070,0.00000051,-0.00000005,-0.00000016,-0.00000092,0.0000
 0096,-0.00000062,0.00000049,-0.00000026,0.00000031,-0.00000150,0.00000
 011,0.00000091,0.00000078,0.00000005,-0.00000017,-0.00000133,0.0000013
 3,-0.00000084,0.00000059,-0.00000044,0.00000042,-0.00000157,-0.0000000
 6,0.00000143,-0.00000002,0.00000016,0.00000104,-0.00000218,-0.00000022
 ,0.00000226,-0.00000080,-0.00000143,0.00000036,-0.00000310,0.00000015,
 0.00000343,0.00000368,0.00000842,0.00000752,-0.00000491,-0.00000089,0.
 00000510,-0.00001147,-0.00003041,-0.00002092,-0.00000364,0.00000589,0.
 00001843,0.00009473,0.00003053,0.00003890,-0.00043063,-0.00007050,0.00
 009482,-0.00133036,-0.00340223,-0.00096979,0.02149397,-0.00751044,-0.0
 0002805,-0.04494821,-0.00056822,0.05052527,-0.31178109,0.09097522,0.03
 563239,-0.00733562,0.00185397,0.00353636,0.00266917,0.00309202,0.00035
 974,0.00007508,-0.00033370,0.00008146,0.00011006,-0.00003975,-0.000224
 21,-0.00008733,-0.00002976,0.00003713,0.00007564,0.00000351,0.00001167
 ,-0.00004837,0.00000854,0.00001458,0.00003300,-0.00002761,-0.00000530,
 -0.00002950,0.00000935,0.00000346,0.00002474,-0.00001321,0.00000604,-0
 .00002051,0.00000865,0.00000026,0.00001739,-0.00001213,0.00000445,-0.0
 0002085,-0.00000439,0.00001519,0.00001798,0.00000204,-0.00001141,-0.00
 000815,0.00001359,-0.00001253,0.00000806,-0.00001188,0.00001041,-0.000
 01063,-0.00000309,0.00001025,0.00001036,0.00000322,-0.00001074,-0.0000
 0406,0.00000722,-0.00000824,0.00000347,-0.00000815,0.00001008,-0.00000
 536,-0.00000222,0.00000688,0.00000664,0.00000369,-0.00001031,-0.000003
 35,-0.00000174,0.00000469,0.00000479,0.00000271,-0.00000693,-0.0000035
 8,-0.00000169,0.00000486,0.00000453,0.00000231,-0.00000640,-0.00000357
 ,-0.00000146,0.00000450,0.00000440,0.00000201,-0.00000577,-0.00000362,
 -0.00000124,0.00000417,0.00000430,0.00000164,-0.00000528,-0.00000367,-
 0.00000106,0.00000388,0.00000427,0.00000136,-0.00000480,-0.00000418,-0
 .00000068,0.00000365,0.00000497,0.00000059,-0.00000408,-0.00000463,0.0
 0000147,0.00000050,-0.01017692,0.00572832,-0.00017653,0.00035502,-0.00
 183012,-0.00189051,-0.00050269,0.00019660,0.00007989,0.00018103,-0.000
 04446,-0.00018159,-0.00003167,0.00001929,0.00001058,0.00001202,0.00001
 648,0.00000472,-0.00000170,0.00000635,-0.00000402,0.00000299,0.0000077
 4,0.00000175,-0.00000152,0.00000422,-0.00000353,-0.00000017,0.00000150
 ,-0.00000202,-0.00000136,0.00000326,-0.00000277,0.00000005,0.00000128,
 -0.00000119,-0.00000127,0.00000228,-0.00000186,0.00000101,0.00000030,-
 0.00000072,-0.00000284,-0.00000020,0.00000185,0.00000053,-0.00000078,0
 .00000080,-0.00000155,0.00000180,-0.00000128,0.00000092,0.00000011,-0.
 00000039,-0.00000221,-0.00000012,0.00000143,0.00000050,-0.00000062,0.0
 0000044,-0.00000132,0.00000144,-0.00000114,0.00000088,0.00000003,-0.00
 000030,-0.00000195,-0.00000022,0.00000159,-0.00000030,-0.00000033,0.00
 000060,-0.00000121,-0.00000046,0.00000146,-0.00000027,-0.00000019,0.00
 000049,-0.00000105,-0.00000040,0.00000126,-0.00000022,-0.00000018,0.00
 000037,-0.00000092,-0.00000037,0.00000111,-0.00000014,-0.00000011,0.00
 000027,-0.00000079,-0.00000030,0.00000101,-0.00000009,-0.00000006,0.00
 000021,-0.00000069,-0.00000028,0.00000089,-0.00000007,-0.00000003,0.00
 000014,-0.00000052,-0.00000027,0.00000080,0.00000017,-0.00000003,0.000
 00004,-0.00000056,0.00000048,-0.00000027,0.32647811,0.08824376,-0.0695
 8054,0.00264513,0.02239766,-0.00337157,-0.00255943,0.00190550,0.003497
 89,0.00718146,-0.00052614,-0.00050212,0.00021748,0.00008521,-0.0000902
 6,-0.00043743,-0.00001748,-0.00007759,0.00000410,0.00003997,0.00008055
 ,0.00001078,-0.00000280,-0.00001644,0.00002124,-0.00000508,-0.00000706
 ,-0.00003718,0.00000041,-0.00001069,0.00001108,0.00000063,0.00001395,-
 0.00000915,0.00000304,-0.00000787,0.00000714,-0.00000345,0.00000787,-0
 .00000921,0.00000801,0.00000263,-0.00000771,-0.00000872,-0.00000575,0.
 00001116,0.00000285,-0.00000692,0.00000678,-0.00000223,0.00000852,-0.0
 0000990,0.00000507,0.00000205,-0.00000615,-0.00000592,-0.00000409,0.00
 000908,0.00000167,-0.00000418,0.00000504,-0.00000112,0.00000585,-0.000
 00841,0.00000296,0.00000154,-0.00000452,-0.00000428,-0.00000342,0.0000
 0802,0.00000213,0.00000179,-0.00000401,-0.00000321,-0.00000242,0.00000
 545,0.00000238,0.00000161,-0.00000395,-0.00000309,-0.00000197,0.000004
 98,0.00000248,0.00000133,-0.00000353,-0.00000303,-0.00000166,0.0000044
 4,0.00000249,0.00000109,-0.00000323,-0.00000304,-0.00000145,0.00000396
 ,0.00000259,0.00000085,-0.00000301,-0.00000313,-0.00000113,0.00000357,
 0.00000307,0.00000053,-0.00000281,-0.00000366,-0.00000052,0.00000300,0
 .00000333,-0.00000131,-0.00000056,-0.01166496,0.00614143,0.00189560,-0
 .00184289,-0.00346756,-0.00395050,0.00096854,-0.00033825,0.00004918,0.
 00004546,-0.00000712,-0.00034989,-0.00006385,0.00005673,0.00000667,0.0
 0002769,0.00003330,0.00001707,0.00000094,-0.00000108,0.00000634,0.0000
 0632,0.00001174,0.00001153,0.00000186,-0.00000269,0.00000345,0.0000001
 2,-0.00000135,0.00000064,0.00000145,-0.00000230,0.00000255,0.00000021,
 -0.00000030,0.00000121,0.00000126,-0.00000158,0.00000168,-0.00000078,0
 .00000007,0.00000067,0.00000241,0.00000025,-0.00000124,-0.00000048,0.0
 0000084,-0.00000032,0.00000142,-0.00000128,0.00000114,-0.00000069,0.00
 000008,0.00000042,0.00000175,0.00000013,-0.00000099,-0.00000039,0.0000
 0061,-0.00000020,0.00000113,-0.00000103,0.00000095,-0.00000065,0.00000
 008,0.00000030,0.00000148,0.00000020,-0.00000112,0.00000021,0.00000027
 ,-0.00000038,0.00000092,0.00000036,-0.00000107,0.00000019,0.00000014,-
 0.00000033,0.00000079,0.00000029,-0.00000095,0.00000014,0.00000009,-0.
 00000026,0.00000067,0.00000025,-0.00000083,0.00000013,0.00000011,-0.00
 000020,0.00000061,0.00000027,-0.00000070,0.00000010,0.00000011,-0.0000
 0010,0.00000055,0.00000025,-0.00000063,0.00000005,0.00000007,-0.000000
 02,0.00000041,0.00000028,-0.00000055,-0.00000012,0.00000012,0.00000008
 ,0.00000050,-0.00000028,0.00000027,-0.09961131,0.06764766,0.03878989,0
 .00128304,-0.05000688,-0.02020085,0.00766121,0.00527034,0.00175288,0.0
 0659940,0.00206459,0.00030937,0.00011282,-0.00081346,-0.00036845,-0.00
 037041,0.00017608,0.00002452,0.00000994,-0.00010380,-0.00003115,0.0000
 2893,0.00008830,0.00002823,0.00001532,-0.00003047,-0.00003145,-0.00002
 553,0.00000335,0.00001413,0.00000652,-0.00001520,-0.00001024,-0.000002
 03,0.00001353,0.00000680,0.00000430,-0.00000840,-0.00000566,-0.0000047
 0,0.00000653,0.00000116,-0.00000139,0.00000060,0.00000078,0.00000547,-
 0.00000690,0.00000077,0.00000060,-0.00000165,-0.00000167,-0.00000400,0
 .00000570,-0.00000044,-0.00000102,0.00000170,0.00000140,0.00000287,-0.
 00000503,-0.00000003,0.00000090,-0.00000170,-0.00000056,-0.00000275,0.
 00000439,-0.00000064,-0.00000077,0.00000159,0.00000145,0.00000187,-0.0
 0000405,-0.00000068,-0.00000118,0.00000216,0.00000122,0.00000130,-0.00
 000270,-0.00000096,-0.00000092,0.00000201,0.00000125,0.00000108,-0.000
 00243,-0.00000097,-0.00000077,0.00000183,0.00000125,0.00000093,-0.0000
 0216,-0.00000109,-0.00000065,0.00000166,0.00000128,0.00000068,-0.00000
 194,-0.00000118,-0.00000052,0.00000146,0.00000132,0.00000051,-0.000001
 69,-0.00000144,-0.00000029,0.00000130,0.00000167,0.00000016,-0.0000013
 9,-0.00000163,0.00000041,0.00000007,0.01988897,-0.00676187,0.00065643,
 -0.00186851,-0.00395287,-0.00219710,-0.00082066,0.00043748,0.00002582,
 -0.00028325,-0.00030811,0.00019641,0.00010610,-0.00003547,0.00002252,-
 0.00000821,0.00002203,0.00003828,0.00000232,0.00000347,-0.00000031,0.0
 0000333,0.00001063,0.00001047,-0.00000077,0.00000221,-0.00000103,-0.00
 000040,-0.00000013,-0.00000040,-0.00000067,0.00000162,-0.00000095,0.00
 000011,0.00000060,0.,-0.00000060,0.00000109,-0.00000059,0.00000052,0.0
 0000010,-0.00000013,-0.00000113,0.00000017,0.00000069,0.00000045,-0.00
 000013,0.00000031,-0.00000072,0.00000082,-0.00000043,0.00000040,0.0000
 0011,-0.00000013,-0.00000080,0.00000007,0.00000051,0.00000030,-0.00000
 015,0.00000016,-0.00000053,0.00000059,-0.00000037,0.00000033,0.0000001
 0,-0.00000013,-0.00000065,-0.00000003,0.00000054,-0.00000009,-0.000000
 09,0.00000021,-0.00000041,-0.00000014,0.00000050,-0.00000008,-0.000000
 05,0.00000014,-0.00000036,-0.00000013,0.00000041,-0.00000006,-0.000000
 06,0.00000008,-0.00000032,-0.00000013,0.00000036,-0.00000001,0.,0.0000
 0005,-0.00000025,-0.00000007,0.00000034,0.,0.00000002,0.00000006,-0.00
 000021,-0.00000006,0.00000030,0.00000001,0.00000003,0.00000004,-0.0000
 0016,-0.00000007,0.00000031,0.00000010,0.00000004,0.00000002,-0.000000
 20,0.00000022,-0.00000005,-0.03729419,-0.00474315,0.04460932\\-0.00000
 126,0.00000018,0.00000174,-0.00000087,0.00000077,-0.00000118,0.0000009
 0,0.00000206,-0.00000198,-0.00000384,-0.00000291,0.00000415,0.00000438
 ,0.00000286,-0.00000506,-0.00000554,-0.00000269,0.00000557,0.00000530,
 0.00000255,-0.00000556,-0.00000546,-0.00000284,0.00000570,0.00000464,0
 .00000241,-0.00000522,-0.00000411,-0.00000301,0.00000514,0.00000316,0.
 00000226,-0.00000425,-0.00000185,-0.00000330,0.00000376,0.00000130,0.0
 0000228,-0.00000311,0.00000276,-0.00000284,0.00000195,-0.00000223,0.00
 000204,-0.00000120,0.00000292,-0.00000123,-0.00000073,-0.00000227,0.00
 000068,0.00000113,0.00000483,-0.00000071,0.00000051,-0.00000483,0.0000
 0098,-0.00000066,0.00000175,-0.00000133,0.00000077,-0.00000280,0.00000
 154,-0.00000019,0.00000261,0.00000004,-0.00000151,-0.00000364,-0.00000
 055,0.00000190,-0.00000004,0.00000173,-0.00000364,0.00000016,-0.000002
 72,0.00000503,-0.00000131,0.00000344,-0.00000459,0.00000165,-0.0000046
 0,0.00000586,-0.00000222,0.00000461,-0.00000549,0.00000249,-0.00000516
 ,0.00000624,-0.00000246,0.00000492,-0.00000577,0.00000223,-0.00000475,
 0.00000587,-0.00000150,0.00000425,-0.00000530,0.00000088,-0.00000370,0
 .00000520,0.00000026,0.00000322,-0.00000482,0.00000103,-0.00000227,0.0
 0000299,0.00000164,-0.00000003,-0.00000075,0.00000046,0.00000031,0.000
 00025,0.,-0.00000073,0.00000019,0.00000039,0.,0.00000074,0.00000029,0.
 00000040,-0.00000143,-0.00000024,-0.00000074,0.00000117,0.00000048,0.0
 0000090,-0.00000118,-0.00000031,-0.00000066,0.00000112,0.00000045,0.00
 000095,-0.00000120,-0.00000021,-0.00000065,0.00000106,0.00000027,0.000
 00097,-0.00000114,-0.00000005,-0.00000064,0.00000094,-0.00000009,0.000
 00098,-0.00000098,0.00000004,-0.00000006,0.00000159,-0.00000096,0.0000
 0056,-0.00000038,-0.00000010,-0.00000034,-0.00000073,-0.00000156,-0.00
 000026,-0.00000045,0.00000061,-0.00000052,0.00000037,-0.00000051,0.000
 00074,-0.00000025,0.00000028,-0.00000109,-0.00000138,-0.00000086,-0.00
 000018,0.00000033,0.00000159,0.00000020,0.00000078,0.00000051,0.000001
 29,0.00000019,0.00000124,0.00000004,-0.00000045,-0.00000068,-0.0000015
 4,0.00000058,0.00000066,0.00000057,-0.00000135,-0.00000030,-0.00000044
 ,0.00000100,0.00000036,0.00000076,-0.00000143,-0.00000016,-0.00000055,
 0.00000102,0.00000021,0.00000083,-0.00000140,-0.00000009,-0.00000058,0
 .00000105,0.00000020,0.00000078,-0.00000126,-0.00000011,-0.00000053,0.
 00000102,0.00000036,0.00000062,-0.00000107,-0.00000038,-0.00000045,0.0
 0000110,0.00000005,0.00000061,-0.00000080,-0.00000051,0.00000031,0.000
 00012,-0.00000019,0.00000002,0.00000036,0.00000021,-0.00000002,-0.0000
 0062\\\@


 THEREFORE SHALL EVIL COME UPON THEE...
 THOU SHALT NOT KNOW FROM WHENCE IT RISETH...
 AND MISCHIEF SHALL FALL UPON THEE...
 THOU SHALT NOT BE ABLE TO PUT IT OFF...
 AND DESOLATION SHALL COME UPON THEE SUDDENLY...
 WHICH THOU SHALT NOT KNOW...

                                         ISAIAH 47.11
 Job cpu time:       0 days  2 hours 48 minutes  2.3 seconds.
 Elapsed time:       0 days  2 hours 48 minutes  3.3 seconds.
 File lengths (MBytes):  RWF=   3641 Int=      0 D2E=      0 Chk=     45 Scr=      1
 Normal termination of Gaussian 16 at Sun Oct 29 16:11:02 2023.
