 Entering Gaussian System, Link 0=g16
 Input=./com/19.com
 Output=./log/19.log
 Initial command:
 /home/shohei/gaussian/g16/l1.exe "/home/shohei/gaussian/scratch/Gau-26559.inp" -scrdir="/home/shohei/gaussian/scratch/"
 Entering Link 1 = /home/shohei/gaussian/g16/l1.exe PID=     26561.
  
 Copyright (c) 1988-2017, Gaussian, Inc.  All Rights Reserved.
  
 This is part of the Gaussian(R) 16 program.  It is based on
 the Gaussian(R) 09 system (copyright 2009, Gaussian, Inc.),
 the Gaussian(R) 03 system (copyright 2003, Gaussian, Inc.),
 the Gaussian(R) 98 system (copyright 1998, Gaussian, Inc.),
 the Gaussian(R) 94 system (copyright 1995, Gaussian, Inc.),
 the Gaussian 92(TM) system (copyright 1992, Gaussian, Inc.),
 the Gaussian 90(TM) system (copyright 1990, Gaussian, Inc.),
 the Gaussian 88(TM) system (copyright 1988, Gaussian, Inc.),
 the Gaussian 86(TM) system (copyright 1986, Carnegie Mellon
 University), and the Gaussian 82(TM) system (copyright 1983,
 Carnegie Mellon University). Gaussian is a federally registered
 trademark of Gaussian, Inc.
  
 This software contains proprietary and confidential information,
 including trade secrets, belonging to Gaussian, Inc.
  
 This software is provided under written license and may be
 used, copied, transmitted, or stored only in accord with that
 written license.
  
 The following legend is applicable only to US Government
 contracts under FAR:
  
                    RESTRICTED RIGHTS LEGEND
  
 Use, reproduction and disclosure by the US Government is
 subject to restrictions as set forth in subparagraphs (a)
 and (c) of the Commercial Computer Software - Restricted
 Rights clause in FAR 52.227-19.
  
 Gaussian, Inc.
 340 Quinnipiac St., Bldg. 40, Wallingford CT 06492
  
  
 ---------------------------------------------------------------
 Warning -- This program may not be used in any manner that
 competes with the business of Gaussian, Inc. or will provide
 assistance to any competitor of Gaussian, Inc.  The licensee
 of this program is prohibited from giving any competitor of
 Gaussian, Inc. access to this program.  By using this program,
 the user acknowledges that Gaussian, Inc. is engaged in the
 business of creating and licensing software in the field of
 computational chemistry and represents and warrants to the
 licensee that it is not a competitor of Gaussian, Inc. and that
 it will not use this program in any manner prohibited above.
 ---------------------------------------------------------------
  

 Cite this work as:
 Gaussian 16, Revision B.01,
 M. J. Frisch, G. W. Trucks, H. B. Schlegel, G. E. Scuseria, 
 M. A. Robb, J. R. Cheeseman, G. Scalmani, V. Barone, 
 G. A. Petersson, H. Nakatsuji, X. Li, M. Caricato, A. V. Marenich, 
 J. Bloino, B. G. Janesko, R. Gomperts, B. Mennucci, H. P. Hratchian, 
 J. V. Ortiz, A. F. Izmaylov, J. L. Sonnenberg, D. Williams-Young, 
 F. Ding, F. Lipparini, F. Egidi, J. Goings, B. Peng, A. Petrone, 
 T. Henderson, D. Ranasinghe, V. G. Zakrzewski, J. Gao, N. Rega, 
 G. Zheng, W. Liang, M. Hada, M. Ehara, K. Toyota, R. Fukuda, 
 J. Hasegawa, M. Ishida, T. Nakajima, Y. Honda, O. Kitao, H. Nakai, 
 T. Vreven, K. Throssell, J. A. Montgomery, Jr., J. E. Peralta, 
 F. Ogliaro, M. J. Bearpark, J. J. Heyd, E. N. Brothers, K. N. Kudin, 
 V. N. Staroverov, T. A. Keith, R. Kobayashi, J. Normand, 
 K. Raghavachari, A. P. Rendell, J. C. Burant, S. S. Iyengar, 
 J. Tomasi, M. Cossi, J. M. Millam, M. Klene, C. Adamo, R. Cammi, 
 J. W. Ochterski, R. L. Martin, K. Morokuma, O. Farkas, 
 J. B. Foresman, and D. J. Fox, Gaussian, Inc., Wallingford CT, 2016.
 
 ******************************************
 Gaussian 16:  EM64L-G16RevB.01 20-Dec-2017
                29-Oct-2023 
 ******************************************
 %chk=./chk/19.chk
 ---------------------------
 # B3LYP/6-31G(d,p) OPT FREQ
 ---------------------------
 1/18=20,19=15,26=3,38=1/1,3;
 2/9=110,12=2,17=6,18=5,40=1/2;
 3/5=1,6=6,7=101,11=2,25=1,30=1,71=1,74=-5/1,2,3;
 4//1;
 5/5=2,38=5/2;
 6/7=2,8=2,9=2,10=2,28=1/1;
 7//1,2,3,16;
 1/18=20,19=15,26=3/3(2);
 2/9=110/2;
 99//99;
 2/9=110/2;
 3/5=1,6=6,7=101,11=2,25=1,30=1,71=1,74=-5/1,2,3;
 4/5=5,16=3,69=1/1;
 5/5=2,38=5/2;
 7//1,2,3,16;
 1/18=20,19=15,26=3/3(-5);
 2/9=110/2;
 6/7=2,8=2,9=2,10=2,19=2,28=1/1;
 99/9=1/99;
 ------
 19poly
 ------
 Symbolic Z-matrix:
 Charge =  0 Multiplicity = 1
 C                    -13.55769   3.41744   1.29371 
 C                    -12.47466   3.7282    0.56905 
 C                    -11.1018   3.2097    0.80963 
 C                    -10.76644   2.35482   1.79891 
 C                    -9.39488   1.82877   2.03888 
 C                    -8.30959   2.13534   1.30667 
 C                    -6.99145   1.54326   1.62239 
 C                    -5.91576   1.83485   0.8793 
 C                    -4.59698   1.23209   1.16612 
 C                    -3.54116   1.50862   0.38993 
 C                    -2.22018   0.89259   0.63539 
 C                    -1.19238   1.14884  -0.18424 
 C                     0.13025   0.51847   0.01086 
 C                     1.12273   0.75345  -0.85766 
 C                     2.4474    0.11064  -0.71933 
 C                     3.39707   0.33425  -1.6443 
 C                     4.75547  -0.26684  -1.6562 
 C                     5.24518  -1.105    -0.71798 
 C                     6.60317  -1.72106  -0.75828 
 C                     7.49198  -1.5494   -1.76001 
 C                     8.84212  -2.16746  -1.83249 
 C                     9.3903   -2.96725  -0.89307 
 C                     10.74552  -3.5827   -0.99228 
 C                     11.57331  -3.44831  -2.05038 
 C                     12.92435  -4.05563  -2.16488 
 C                     13.53081  -4.80375  -1.22685 
 C                     14.88652  -5.33953  -1.47678 
 C                     15.5368  -6.06674  -0.55873 
 C                     16.89529  -6.57807  -0.83835 
 C                     17.57867  -7.28465   0.07138 
 C                     18.94015  -7.77519  -0.22995 
 C                     19.64932  -8.46299   0.6744 
 C                     21.01302  -8.93765   0.35824 
 C                     21.73982  -9.6109    1.25956 
 C                     23.1049  -10.07541   0.93471 
 C                     23.84157  -10.73958   1.83477 
 C                     25.20672  -11.19896   1.50567 
 C                     25.94804  -11.85744   2.39944 
 H                    -13.52743   2.74431   2.14031 
 H                    -12.60372   4.41284  -0.26406 
 H                    -10.35116   3.56778   0.11804 
 H                    -11.52134   1.99871   2.48757 
 H                    -9.28344   1.14058   2.87263 
 H                    -8.37287   2.8142    0.46532 
 H                    -6.89987   0.85567   2.46005 
 H                    -6.01261   2.51803   0.0383 
 H                    -4.49071   0.54712   2.00411 
 H                    -3.65795   2.1875   -0.45212 
 H                    -2.09092   0.21315   1.47458 
 H                    -1.33521   1.82112  -1.02764 
 H                     0.28823  -0.1538    0.85083 
 H                     0.94735   1.41888  -1.70042 
 H                     2.62086  -0.54955   0.12229 
 H                     3.16718   0.99644  -2.47526 
 H                     5.35746   0.01516  -2.50816 
 H                     4.63702  -1.3763    0.13552 
 H                     6.85038  -2.35316   0.08469 
 H                     7.24427  -0.92861  -2.60928 
 H                     9.39086  -1.9261   -2.73174 
 H                     8.84088  -3.19984   0.00986 
 H                     11.04949  -4.17615  -0.13948 
 H                     11.2748  -2.8654   -2.90999 
 H                     13.45206  -3.86083  -3.09512 
 H                     13.05117  -5.02243  -0.28012 
 H                     15.36726  -5.13012  -2.43004 
 H                     15.06917  -6.27791   0.40002 
 H                     17.34902  -6.36741  -1.80442 
 H                     17.13468  -7.49496   1.04156 
 H                     19.37329  -7.56584  -1.20565 
 H                     19.22333  -8.67136   1.65309 
 H                     21.43162  -8.73048  -0.6242 
 H                     21.32574  -9.81701   2.24387 
 H                     23.51499  -9.87043  -0.05175 
 H                     23.43446  -10.9442   2.82234 
 H                     25.62258  -11.00088   0.5213 
 H                     25.56882  -12.07419   3.39371 
 H                     26.9487  -12.18552   2.13708 
 H                    -14.51683   3.8524    1.03139 
 

 GradGradGradGradGradGradGradGradGradGradGradGradGradGradGradGradGradGrad
 Berny optimization.
 Initialization pass.
                           ----------------------------
                           !    Initial Parameters    !
                           ! (Angstroms and Degrees)  !
 --------------------------                            --------------------------
 ! Name  Definition              Value          Derivative Info.                !
 --------------------------------------------------------------------------------
 ! R1    R(1,2)                  1.3396         estimate D2E/DX2                !
 ! R2    R(1,39)                 1.082          estimate D2E/DX2                !
 ! R3    R(1,78)                 1.0853         estimate D2E/DX2                !
 ! R4    R(2,3)                  1.4871         estimate D2E/DX2                !
 ! R5    R(2,40)                 1.086          estimate D2E/DX2                !
 ! R6    R(3,4)                  1.3498         estimate D2E/DX2                !
 ! R7    R(3,41)                 1.0817         estimate D2E/DX2                !
 ! R8    R(4,5)                  1.4885         estimate D2E/DX2                !
 ! R9    R(4,42)                 1.0821         estimate D2E/DX2                !
 ! R10   R(5,6)                  1.3446         estimate D2E/DX2                !
 ! R11   R(5,43)                 1.0868         estimate D2E/DX2                !
 ! R12   R(6,7)                  1.4791         estimate D2E/DX2                !
 ! R13   R(6,44)                 1.0829         estimate D2E/DX2                !
 ! R14   R(7,8)                  1.3395         estimate D2E/DX2                !
 ! R15   R(7,45)                 1.0876         estimate D2E/DX2                !
 ! R16   R(8,9)                  1.4781         estimate D2E/DX2                !
 ! R17   R(8,46)                 1.0878         estimate D2E/DX2                !
 ! R18   R(9,10)                 1.3393         estimate D2E/DX2                !
 ! R19   R(9,47)                 1.0875         estimate D2E/DX2                !
 ! R20   R(10,11)                1.4781         estimate D2E/DX2                !
 ! R21   R(10,48)                1.0879         estimate D2E/DX2                !
 ! R22   R(11,12)                1.3393         estimate D2E/DX2                !
 ! R23   R(11,49)                1.0875         estimate D2E/DX2                !
 ! R24   R(12,13)                1.4781         estimate D2E/DX2                !
 ! R25   R(12,50)                1.088          estimate D2E/DX2                !
 ! R26   R(13,14)                1.3396         estimate D2E/DX2                !
 ! R27   R(13,51)                1.0874         estimate D2E/DX2                !
 ! R28   R(14,15)                1.4789         estimate D2E/DX2                !
 ! R29   R(14,52)                1.088          estimate D2E/DX2                !
 ! R30   R(15,16)                1.3444         estimate D2E/DX2                !
 ! R31   R(15,53)                1.0836         estimate D2E/DX2                !
 ! R32   R(16,17)                1.4855         estimate D2E/DX2                !
 ! R33   R(16,54)                1.0871         estimate D2E/DX2                !
 ! R34   R(17,18)                1.35           estimate D2E/DX2                !
 ! R35   R(17,55)                1.0806         estimate D2E/DX2                !
 ! R36   R(18,19)                1.4917         estimate D2E/DX2                !
 ! R37   R(18,56)                1.0825         estimate D2E/DX2                !
 ! R38   R(19,20)                1.3502         estimate D2E/DX2                !
 ! R39   R(19,57)                1.0822         estimate D2E/DX2                !
 ! R40   R(20,21)                1.4867         estimate D2E/DX2                !
 ! R41   R(20,58)                1.0807         estimate D2E/DX2                !
 ! R42   R(21,22)                1.3501         estimate D2E/DX2                !
 ! R43   R(21,59)                1.0807         estimate D2E/DX2                !
 ! R44   R(22,23)                1.4917         estimate D2E/DX2                !
 ! R45   R(22,60)                1.0822         estimate D2E/DX2                !
 ! R46   R(23,24)                1.3501         estimate D2E/DX2                !
 ! R47   R(23,61)                1.0825         estimate D2E/DX2                !
 ! R48   R(24,25)                1.4857         estimate D2E/DX2                !
 ! R49   R(24,62)                1.0807         estimate D2E/DX2                !
 ! R50   R(25,26)                1.3444         estimate D2E/DX2                !
 ! R51   R(25,63)                1.0871         estimate D2E/DX2                !
 ! R52   R(26,27)                1.479          estimate D2E/DX2                !
 ! R53   R(26,64)                1.0836         estimate D2E/DX2                !
 ! R54   R(27,28)                1.3396         estimate D2E/DX2                !
 ! R55   R(27,65)                1.088          estimate D2E/DX2                !
 ! R56   R(28,29)                1.4782         estimate D2E/DX2                !
 ! R57   R(28,66)                1.0874         estimate D2E/DX2                !
 ! R58   R(29,30)                1.3394         estimate D2E/DX2                !
 ! R59   R(29,67)                1.0879         estimate D2E/DX2                !
 ! R60   R(30,31)                1.4782         estimate D2E/DX2                !
 ! R61   R(30,68)                1.0875         estimate D2E/DX2                !
 ! R62   R(31,32)                1.3393         estimate D2E/DX2                !
 ! R63   R(31,69)                1.0879         estimate D2E/DX2                !
 ! R64   R(32,33)                1.4782         estimate D2E/DX2                !
 ! R65   R(32,70)                1.0875         estimate D2E/DX2                !
 ! R66   R(33,34)                1.3394         estimate D2E/DX2                !
 ! R67   R(33,71)                1.0878         estimate D2E/DX2                !
 ! R68   R(34,35)                1.4781         estimate D2E/DX2                !
 ! R69   R(34,72)                1.0876         estimate D2E/DX2                !
 ! R70   R(35,36)                1.3394         estimate D2E/DX2                !
 ! R71   R(35,73)                1.0878         estimate D2E/DX2                !
 ! R72   R(36,37)                1.4775         estimate D2E/DX2                !
 ! R73   R(36,74)                1.0876         estimate D2E/DX2                !
 ! R74   R(37,38)                1.3349         estimate D2E/DX2                !
 ! R75   R(37,75)                1.0868         estimate D2E/DX2                !
 ! R76   R(38,76)                1.086          estimate D2E/DX2                !
 ! R77   R(38,77)                1.0853         estimate D2E/DX2                !
 ! A1    A(2,1,39)             123.0212         estimate D2E/DX2                !
 ! A2    A(2,1,78)             119.3892         estimate D2E/DX2                !
 ! A3    A(39,1,78)            117.5896         estimate D2E/DX2                !
 ! A4    A(1,2,3)              125.3061         estimate D2E/DX2                !
 ! A5    A(1,2,40)             117.7183         estimate D2E/DX2                !
 ! A6    A(3,2,40)             116.9755         estimate D2E/DX2                !
 ! A7    A(2,3,4)              124.6635         estimate D2E/DX2                !
 ! A8    A(2,3,41)             114.9484         estimate D2E/DX2                !
 ! A9    A(4,3,41)             120.388          estimate D2E/DX2                !
 ! A10   A(3,4,5)              124.8155         estimate D2E/DX2                !
 ! A11   A(3,4,42)             120.1014         estimate D2E/DX2                !
 ! A12   A(5,4,42)             115.0827         estimate D2E/DX2                !
 ! A13   A(4,5,6)              125.1265         estimate D2E/DX2                !
 ! A14   A(4,5,43)             116.2293         estimate D2E/DX2                !
 ! A15   A(6,5,43)             118.6435         estimate D2E/DX2                !
 ! A16   A(5,6,7)              120.7841         estimate D2E/DX2                !
 ! A17   A(5,6,44)             121.2539         estimate D2E/DX2                !
 ! A18   A(7,6,44)             117.9601         estimate D2E/DX2                !
 ! A19   A(6,7,8)              120.6704         estimate D2E/DX2                !
 ! A20   A(6,7,45)             119.5064         estimate D2E/DX2                !
 ! A21   A(8,7,45)             119.8195         estimate D2E/DX2                !
 ! A22   A(7,8,9)              121.3369         estimate D2E/DX2                !
 ! A23   A(7,8,46)             119.6095         estimate D2E/DX2                !
 ! A24   A(9,8,46)             119.0483         estimate D2E/DX2                !
 ! A25   A(8,9,10)             120.445          estimate D2E/DX2                !
 ! A26   A(8,9,47)             119.5745         estimate D2E/DX2                !
 ! A27   A(10,9,47)            119.9729         estimate D2E/DX2                !
 ! A28   A(9,10,11)            121.4833         estimate D2E/DX2                !
 ! A29   A(9,10,48)            119.5244         estimate D2E/DX2                !
 ! A30   A(11,10,48)           118.9831         estimate D2E/DX2                !
 ! A31   A(10,11,12)           120.2957         estimate D2E/DX2                !
 ! A32   A(10,11,49)           119.6552         estimate D2E/DX2                !
 ! A33   A(12,11,49)           120.0377         estimate D2E/DX2                !
 ! A34   A(11,12,13)           121.6217         estimate D2E/DX2                !
 ! A35   A(11,12,50)           119.4638         estimate D2E/DX2                !
 ! A36   A(13,12,50)           118.9026         estimate D2E/DX2                !
 ! A37   A(12,13,14)           120.1699         estimate D2E/DX2                !
 ! A38   A(12,13,51)           119.7105         estimate D2E/DX2                !
 ! A39   A(14,13,51)           120.1069         estimate D2E/DX2                !
 ! A40   A(13,14,15)           121.7848         estimate D2E/DX2                !
 ! A41   A(13,14,52)           119.3435         estimate D2E/DX2                !
 ! A42   A(15,14,52)           118.8598         estimate D2E/DX2                !
 ! A43   A(14,15,16)           119.7405         estimate D2E/DX2                !
 ! A44   A(14,15,53)           118.7405         estimate D2E/DX2                !
 ! A45   A(16,15,53)           121.5074         estimate D2E/DX2                !
 ! A46   A(15,16,17)           125.7434         estimate D2E/DX2                !
 ! A47   A(15,16,54)           118.5434         estimate D2E/DX2                !
 ! A48   A(17,16,54)           115.7043         estimate D2E/DX2                !
 ! A49   A(16,17,18)           125.2647         estimate D2E/DX2                !
 ! A50   A(16,17,55)           114.2131         estimate D2E/DX2                !
 ! A51   A(18,17,55)           120.5207         estimate D2E/DX2                !
 ! A52   A(17,18,19)           124.5997         estimate D2E/DX2                !
 ! A53   A(17,18,56)           119.982          estimate D2E/DX2                !
 ! A54   A(19,18,56)           115.4175         estimate D2E/DX2                !
 ! A55   A(18,19,20)           124.5279         estimate D2E/DX2                !
 ! A56   A(18,19,57)           115.3475         estimate D2E/DX2                !
 ! A57   A(20,19,57)           120.1188         estimate D2E/DX2                !
 ! A58   A(19,20,21)           125.5324         estimate D2E/DX2                !
 ! A59   A(19,20,58)           120.3437         estimate D2E/DX2                !
 ! A60   A(21,20,58)           114.12           estimate D2E/DX2                !
 ! A61   A(20,21,22)           125.5292         estimate D2E/DX2                !
 ! A62   A(20,21,59)           114.1319         estimate D2E/DX2                !
 ! A63   A(22,21,59)           120.3389         estimate D2E/DX2                !
 ! A64   A(21,22,23)           124.5423         estimate D2E/DX2                !
 ! A65   A(21,22,60)           120.1144         estimate D2E/DX2                !
 ! A66   A(23,22,60)           115.3432         estimate D2E/DX2                !
 ! A67   A(22,23,24)           124.6157         estimate D2E/DX2                !
 ! A68   A(22,23,61)           115.3969         estimate D2E/DX2                !
 ! A69   A(24,23,61)           119.9865         estimate D2E/DX2                !
 ! A70   A(23,24,25)           125.2582         estimate D2E/DX2                !
 ! A71   A(23,24,62)           120.5126         estimate D2E/DX2                !
 ! A72   A(25,24,62)           114.2289         estimate D2E/DX2                !
 ! A73   A(24,25,26)           125.7269         estimate D2E/DX2                !
 ! A74   A(24,25,63)           115.7307         estimate D2E/DX2                !
 ! A75   A(26,25,63)           118.5417         estimate D2E/DX2                !
 ! A76   A(25,26,27)           119.8132         estimate D2E/DX2                !
 ! A77   A(25,26,64)           121.4825         estimate D2E/DX2                !
 ! A78   A(27,26,64)           118.7033         estimate D2E/DX2                !
 ! A79   A(26,27,28)           121.7226         estimate D2E/DX2                !
 ! A80   A(26,27,65)           118.906          estimate D2E/DX2                !
 ! A81   A(28,27,65)           119.3702         estimate D2E/DX2                !
 ! A82   A(27,28,29)           120.2821         estimate D2E/DX2                !
 ! A83   A(27,28,66)           120.0591         estimate D2E/DX2                !
 ! A84   A(29,28,66)           119.6575         estimate D2E/DX2                !
 ! A85   A(28,29,30)           121.5274         estimate D2E/DX2                !
 ! A86   A(28,29,67)           118.9657         estimate D2E/DX2                !
 ! A87   A(30,29,67)           119.5057         estimate D2E/DX2                !
 ! A88   A(29,30,31)           120.4348         estimate D2E/DX2                !
 ! A89   A(29,30,68)           119.9781         estimate D2E/DX2                !
 ! A90   A(31,30,68)           119.5857         estimate D2E/DX2                !
 ! A91   A(30,31,32)           121.3634         estimate D2E/DX2                !
 ! A92   A(30,31,69)           119.0579         estimate D2E/DX2                !
 ! A93   A(32,31,69)           119.5777         estimate D2E/DX2                !
 ! A94   A(31,32,33)           120.5958         estimate D2E/DX2                !
 ! A95   A(31,32,70)           119.9096         estimate D2E/DX2                !
 ! A96   A(33,32,70)           119.4938         estimate D2E/DX2                !
 ! A97   A(32,33,34)           121.2054         estimate D2E/DX2                !
 ! A98   A(32,33,71)           119.1456         estimate D2E/DX2                !
 ! A99   A(34,33,71)           119.6485         estimate D2E/DX2                !
 ! A100  A(33,34,35)           120.7458         estimate D2E/DX2                !
 ! A101  A(33,34,72)           119.8487         estimate D2E/DX2                !
 ! A102  A(35,34,72)           119.4052         estimate D2E/DX2                !
 ! A103  A(34,35,36)           121.0714         estimate D2E/DX2                !
 ! A104  A(34,35,73)           119.2259         estimate D2E/DX2                !
 ! A105  A(36,35,73)           119.7025         estimate D2E/DX2                !
 ! A106  A(35,36,37)           120.8433         estimate D2E/DX2                !
 ! A107  A(35,36,74)           119.8419         estimate D2E/DX2                !
 ! A108  A(37,36,74)           119.3147         estimate D2E/DX2                !
 ! A109  A(36,37,38)           121.1551         estimate D2E/DX2                !
 ! A110  A(36,37,75)           119.9089         estimate D2E/DX2                !
 ! A111  A(38,37,75)           118.9359         estimate D2E/DX2                !
 ! A112  A(37,38,76)           121.166          estimate D2E/DX2                !
 ! A113  A(37,38,77)           119.9544         estimate D2E/DX2                !
 ! A114  A(76,38,77)           118.8796         estimate D2E/DX2                !
 ! D1    D(39,1,2,3)             0.0244         estimate D2E/DX2                !
 ! D2    D(39,1,2,40)          179.9299         estimate D2E/DX2                !
 ! D3    D(78,1,2,3)          -179.9311         estimate D2E/DX2                !
 ! D4    D(78,1,2,40)           -0.0257         estimate D2E/DX2                !
 ! D5    D(1,2,3,4)             -0.1675         estimate D2E/DX2                !
 ! D6    D(1,2,3,41)           179.7149         estimate D2E/DX2                !
 ! D7    D(40,2,3,4)           179.9265         estimate D2E/DX2                !
 ! D8    D(40,2,3,41)           -0.1911         estimate D2E/DX2                !
 ! D9    D(2,3,4,5)            179.6975         estimate D2E/DX2                !
 ! D10   D(2,3,4,42)            -0.06           estimate D2E/DX2                !
 ! D11   D(41,3,4,5)            -0.1789         estimate D2E/DX2                !
 ! D12   D(41,3,4,42)         -179.9364         estimate D2E/DX2                !
 ! D13   D(3,4,5,6)              0.1288         estimate D2E/DX2                !
 ! D14   D(3,4,5,43)          -179.5452         estimate D2E/DX2                !
 ! D15   D(42,4,5,6)           179.8972         estimate D2E/DX2                !
 ! D16   D(42,4,5,43)            0.2232         estimate D2E/DX2                !
 ! D17   D(4,5,6,7)           -179.3096         estimate D2E/DX2                !
 ! D18   D(4,5,6,44)             0.1799         estimate D2E/DX2                !
 ! D19   D(43,5,6,7)             0.3572         estimate D2E/DX2                !
 ! D20   D(43,5,6,44)          179.8467         estimate D2E/DX2                !
 ! D21   D(5,6,7,8)            179.0045         estimate D2E/DX2                !
 ! D22   D(5,6,7,45)            -0.296          estimate D2E/DX2                !
 ! D23   D(44,6,7,8)            -0.5014         estimate D2E/DX2                !
 ! D24   D(44,6,7,45)         -179.8019         estimate D2E/DX2                !
 ! D25   D(6,7,8,9)           -178.8448         estimate D2E/DX2                !
 ! D26   D(6,7,8,46)             0.3068         estimate D2E/DX2                !
 ! D27   D(45,7,8,9)             0.4535         estimate D2E/DX2                !
 ! D28   D(45,7,8,46)          179.6052         estimate D2E/DX2                !
 ! D29   D(7,8,9,10)           178.2146         estimate D2E/DX2                !
 ! D30   D(7,8,9,47)            -0.7773         estimate D2E/DX2                !
 ! D31   D(46,8,9,10)           -0.9417         estimate D2E/DX2                !
 ! D32   D(46,8,9,47)         -179.9336         estimate D2E/DX2                !
 ! D33   D(8,9,10,11)         -178.4508         estimate D2E/DX2                !
 ! D34   D(8,9,10,48)            0.4314         estimate D2E/DX2                !
 ! D35   D(47,9,10,11)           0.5371         estimate D2E/DX2                !
 ! D36   D(47,9,10,48)         179.4193         estimate D2E/DX2                !
 ! D37   D(9,10,11,12)         177.6025         estimate D2E/DX2                !
 ! D38   D(9,10,11,49)          -1.1734         estimate D2E/DX2                !
 ! D39   D(48,10,11,12)         -1.2856         estimate D2E/DX2                !
 ! D40   D(48,10,11,49)        179.9385         estimate D2E/DX2                !
 ! D41   D(10,11,12,13)       -178.2062         estimate D2E/DX2                !
 ! D42   D(10,11,12,50)          0.5258         estimate D2E/DX2                !
 ! D43   D(49,11,12,13)          0.565          estimate D2E/DX2                !
 ! D44   D(49,11,12,50)        179.297          estimate D2E/DX2                !
 ! D45   D(11,12,13,14)        177.2975         estimate D2E/DX2                !
 ! D46   D(11,12,13,51)         -1.4046         estimate D2E/DX2                !
 ! D47   D(50,12,13,14)         -1.4414         estimate D2E/DX2                !
 ! D48   D(50,12,13,51)        179.8565         estimate D2E/DX2                !
 ! D49   D(12,13,14,15)       -178.1668         estimate D2E/DX2                !
 ! D50   D(12,13,14,52)          0.5679         estimate D2E/DX2                !
 ! D51   D(51,13,14,15)          0.5302         estimate D2E/DX2                !
 ! D52   D(51,13,14,52)        179.2648         estimate D2E/DX2                !
 ! D53   D(13,14,15,16)        177.3546         estimate D2E/DX2                !
 ! D54   D(13,14,15,53)         -1.4299         estimate D2E/DX2                !
 ! D55   D(52,14,15,16)         -1.386          estimate D2E/DX2                !
 ! D56   D(52,14,15,53)        179.8295         estimate D2E/DX2                !
 ! D57   D(14,15,16,17)       -178.3317         estimate D2E/DX2                !
 ! D58   D(14,15,16,54)          0.5341         estimate D2E/DX2                !
 ! D59   D(53,15,16,17)          0.4182         estimate D2E/DX2                !
 ! D60   D(53,15,16,54)        179.284          estimate D2E/DX2                !
 ! D61   D(15,16,17,18)         -1.619          estimate D2E/DX2                !
 ! D62   D(15,16,17,55)        177.9313         estimate D2E/DX2                !
 ! D63   D(54,16,17,18)        179.4868         estimate D2E/DX2                !
 ! D64   D(54,16,17,55)         -0.9629         estimate D2E/DX2                !
 ! D65   D(16,17,18,19)        178.7639         estimate D2E/DX2                !
 ! D66   D(16,17,18,56)         -0.9006         estimate D2E/DX2                !
 ! D67   D(55,17,18,19)         -0.76           estimate D2E/DX2                !
 ! D68   D(55,17,18,56)        179.5755         estimate D2E/DX2                !
 ! D69   D(17,18,19,20)         -2.2413         estimate D2E/DX2                !
 ! D70   D(17,18,19,57)        178.6366         estimate D2E/DX2                !
 ! D71   D(56,18,19,20)        177.437          estimate D2E/DX2                !
 ! D72   D(56,18,19,57)         -1.685          estimate D2E/DX2                !
 ! D73   D(18,19,20,21)       -179.0671         estimate D2E/DX2                !
 ! D74   D(18,19,20,58)          0.1725         estimate D2E/DX2                !
 ! D75   D(57,19,20,21)          0.0156         estimate D2E/DX2                !
 ! D76   D(57,19,20,58)        179.2552         estimate D2E/DX2                !
 ! D77   D(19,20,21,22)         -1.5918         estimate D2E/DX2                !
 ! D78   D(19,20,21,59)        178.401          estimate D2E/DX2                !
 ! D79   D(58,20,21,22)        179.1272         estimate D2E/DX2                !
 ! D80   D(58,20,21,59)         -0.88           estimate D2E/DX2                !
 ! D81   D(20,21,22,23)        179.6249         estimate D2E/DX2                !
 ! D82   D(20,21,22,60)         -0.5237         estimate D2E/DX2                !
 ! D83   D(59,21,22,23)         -0.3674         estimate D2E/DX2                !
 ! D84   D(59,21,22,60)        179.484          estimate D2E/DX2                !
 ! D85   D(21,22,23,24)         -2.0887         estimate D2E/DX2                !
 ! D86   D(21,22,23,61)        178.2806         estimate D2E/DX2                !
 ! D87   D(60,22,23,24)        178.0535         estimate D2E/DX2                !
 ! D88   D(60,22,23,61)         -1.5771         estimate D2E/DX2                !
 ! D89   D(22,23,24,25)       -179.9325         estimate D2E/DX2                !
 ! D90   D(22,23,24,62)         -0.1815         estimate D2E/DX2                !
 ! D91   D(61,23,24,25)         -0.3177         estimate D2E/DX2                !
 ! D92   D(61,23,24,62)        179.4333         estimate D2E/DX2                !
 ! D93   D(23,24,25,26)         -1.3591         estimate D2E/DX2                !
 ! D94   D(23,24,25,63)        178.952          estimate D2E/DX2                !
 ! D95   D(62,24,25,26)        178.8762         estimate D2E/DX2                !
 ! D96   D(62,24,25,63)         -0.8127         estimate D2E/DX2                !
 ! D97   D(24,25,26,27)       -179.6778         estimate D2E/DX2                !
 ! D98   D(24,25,26,64)         -0.0593         estimate D2E/DX2                !
 ! D99   D(63,25,26,27)          0.0032         estimate D2E/DX2                !
 ! D100  D(63,25,26,64)        179.6217         estimate D2E/DX2                !
 ! D101  D(25,26,27,28)        178.6528         estimate D2E/DX2                !
 ! D102  D(25,26,27,65)         -0.9607         estimate D2E/DX2                !
 ! D103  D(64,26,27,28)         -0.9763         estimate D2E/DX2                !
 ! D104  D(64,26,27,65)        179.4102         estimate D2E/DX2                !
 ! D105  D(26,27,28,29)       -179.5383         estimate D2E/DX2                !
 ! D106  D(26,27,28,66)          0.0352         estimate D2E/DX2                !
 ! D107  D(65,27,28,29)          0.0735         estimate D2E/DX2                !
 ! D108  D(65,27,28,66)        179.647          estimate D2E/DX2                !
 ! D109  D(27,28,29,30)        178.6412         estimate D2E/DX2                !
 ! D110  D(27,28,29,67)         -0.9452         estimate D2E/DX2                !
 ! D111  D(66,28,29,30)         -0.934          estimate D2E/DX2                !
 ! D112  D(66,28,29,67)        179.4796         estimate D2E/DX2                !
 ! D113  D(28,29,30,31)       -179.5101         estimate D2E/DX2                !
 ! D114  D(28,29,30,68)          0.0769         estimate D2E/DX2                !
 ! D115  D(67,29,30,31)          0.0741         estimate D2E/DX2                !
 ! D116  D(67,29,30,68)        179.6611         estimate D2E/DX2                !
 ! D117  D(29,30,31,32)        178.804          estimate D2E/DX2                !
 ! D118  D(29,30,31,69)         -0.8328         estimate D2E/DX2                !
 ! D119  D(68,30,31,32)         -0.7846         estimate D2E/DX2                !
 ! D120  D(68,30,31,69)        179.5786         estimate D2E/DX2                !
 ! D121  D(30,31,32,33)       -179.5822         estimate D2E/DX2                !
 ! D122  D(30,31,32,70)          0.0844         estimate D2E/DX2                !
 ! D123  D(69,31,32,33)          0.0528         estimate D2E/DX2                !
 ! D124  D(69,31,32,70)        179.7194         estimate D2E/DX2                !
 ! D125  D(31,32,33,34)        179.0963         estimate D2E/DX2                !
 ! D126  D(31,32,33,71)         -0.6415         estimate D2E/DX2                !
 ! D127  D(70,32,33,34)         -0.5717         estimate D2E/DX2                !
 ! D128  D(70,32,33,71)        179.6906         estimate D2E/DX2                !
 ! D129  D(32,33,34,35)       -179.7152         estimate D2E/DX2                !
 ! D130  D(32,33,34,72)          0.0667         estimate D2E/DX2                !
 ! D131  D(71,33,34,35)          0.0213         estimate D2E/DX2                !
 ! D132  D(71,33,34,72)        179.8032         estimate D2E/DX2                !
 ! D133  D(33,34,35,36)        179.4459         estimate D2E/DX2                !
 ! D134  D(33,34,35,73)         -0.4107         estimate D2E/DX2                !
 ! D135  D(72,34,35,36)         -0.337          estimate D2E/DX2                !
 ! D136  D(72,34,35,73)        179.8064         estimate D2E/DX2                !
 ! D137  D(34,35,36,37)       -179.8621         estimate D2E/DX2                !
 ! D138  D(34,35,36,74)          0.0356         estimate D2E/DX2                !
 ! D139  D(73,35,36,37)         -0.0061         estimate D2E/DX2                !
 ! D140  D(73,35,36,74)        179.8916         estimate D2E/DX2                !
 ! D141  D(35,36,37,38)        179.7717         estimate D2E/DX2                !
 ! D142  D(35,36,37,75)         -0.184          estimate D2E/DX2                !
 ! D143  D(74,36,37,38)         -0.1265         estimate D2E/DX2                !
 ! D144  D(74,36,37,75)        179.9178         estimate D2E/DX2                !
 ! D145  D(36,37,38,76)          0.0023         estimate D2E/DX2                !
 ! D146  D(36,37,38,77)       -179.9689         estimate D2E/DX2                !
 ! D147  D(75,37,38,76)        179.9584         estimate D2E/DX2                !
 ! D148  D(75,37,38,77)         -0.0128         estimate D2E/DX2                !
 --------------------------------------------------------------------------------
 Trust Radius=3.00D-01 FncErr=1.00D-07 GrdErr=1.00D-06 EigMax=2.50D+02 EigMin=1.00D-04
 Number of steps in this run=    349 maximum allowed number of steps=    468.
 GradGradGradGradGradGradGradGradGradGradGradGradGradGradGradGradGradGrad

 Stoichiometry    C38H40
 Framework group  C1[X(C38H40)]
 Deg. of freedom   228
 Full point group                 C1      NOp   1
 Largest Abelian subgroup         C1      NOp   1
 Largest concise Abelian subgroup C1      NOp   1
                         Standard orientation:                         
 ---------------------------------------------------------------------
 Center     Atomic      Atomic             Coordinates (Angstroms)
 Number     Number       Type             X           Y           Z
 ---------------------------------------------------------------------
      1          6           0      -21.067925    1.727517    0.645139
      2          6           0      -20.160776    0.748510    0.529907
      3          6           0      -18.696417    0.948681    0.365428
      4          6           0      -18.087810    2.152091    0.307351
      5          6           0      -16.621937    2.356305    0.149231
      6          6           0      -15.711068    1.373159    0.040977
      7          6           0      -14.272162    1.686236   -0.097816
      8          6           0      -13.364721    0.704830   -0.185576
      9          6           0      -11.921006    1.000691   -0.299265
     10          6           0      -11.026255    0.005433   -0.350086
     11          6           0       -9.575195    0.275260   -0.429716
     12          6           0       -8.698721   -0.737474   -0.431107
     13          6           0       -7.240326   -0.500159   -0.470319
     14          6           0       -6.388521   -1.532652   -0.416112
     15          6           0       -4.923032   -1.334119   -0.412578
     16          6           0       -4.106352   -2.396463   -0.303381
     17          6           0       -2.622570   -2.348541   -0.250557
     18          6           0       -1.875393   -1.227371   -0.335941
     19          6           0       -0.386237   -1.193622   -0.254815
     20          6           0        0.393345   -2.275414   -0.042948
     21          6           0        1.876298   -2.264637    0.061320
     22          6           0        2.664168   -1.176263   -0.070557
     23          6           0        4.151249   -1.189385    0.046324
     24          6           0        4.888061   -2.282564    0.337751
     25          6           0        6.368502   -2.311622    0.459013
     26          6           0        7.192123   -1.265573    0.272386
     27          6           0        8.652816   -1.444205    0.420461
     28          6           0        9.510024   -0.435013    0.217361
     29          6           0       10.964868   -0.651741    0.364293
     30          6           0       11.845615    0.332306    0.141095
     31          6           0       13.296024    0.085889    0.284738
     32          6           0       14.194117    1.049694    0.043213
     33          6           0       15.641060    0.781996    0.183300
     34          6           0       16.550390    1.731526   -0.072425
     35          6           0       17.995076    1.450873    0.064945
     36          6           0       18.910350    2.392227   -0.199683
     37          6           0       20.353301    2.105279   -0.063598
     38          6           0       21.270950    3.037426   -0.330044
     39          1           0      -20.807619    2.777610    0.627783
     40          1           0      -20.517547   -0.276804    0.559766
     41          1           0      -18.116751    0.038321    0.293262
     42          1           0      -18.672124    3.059885    0.381061
     43          1           0      -16.280321    3.387787    0.126826
     44          1           0      -16.004310    0.330877    0.060662
     45          1           0      -13.949340    2.724622   -0.117156
     46          1           0      -13.690827   -0.332656   -0.159398
     47          1           0      -11.585431    2.034816   -0.325086
     48          1           0      -11.369397   -1.026331   -0.314194
     49          1           0       -9.220183    1.302469   -0.467156
     50          1           0       -9.063756   -1.761192   -0.381812
     51          1           0       -6.861120    0.517681   -0.522028
     52          1           0       -6.781448   -2.545251   -0.352506
     53          1           0       -4.533764   -0.324994   -0.478826
     54          1           0       -4.549107   -3.386504   -0.228367
     55          1           0       -2.152133   -3.313386   -0.125986
     56          1           0       -2.355459   -0.266058   -0.467571
     57          1           0        0.061674   -0.214541   -0.364513
     58          1           0       -0.050875   -3.253053    0.079083
     59          1           0        2.312306   -3.233320    0.260210
     60          1           0        2.224315   -0.209440   -0.277979
     61          1           0        4.638052   -0.235999   -0.114745
     62          1           0        4.410244   -3.236578    0.509135
     63          1           0        6.802066   -3.274459    0.717326
     64          1           0        6.811798   -0.286049    0.007723
     65          1           0        9.037596   -2.423954    0.695610
     66          1           0        9.138040    0.547403   -0.063646
     67          1           0       11.324164   -1.636839    0.654173
     68          1           0       11.495224    1.318472   -0.154387
     69          1           0       13.636708   -0.901903    0.587455
     70          1           0       13.859721    2.037836   -0.264144
     71          1           0       15.969051   -0.206938    0.495980
     72          1           0       16.226213    2.720422   -0.388343
     73          1           0       18.315963    0.461726    0.384183
     74          1           0       18.592097    3.381450   -0.520732
     75          1           0       20.682035    1.120491    0.257808
     76          1           0       20.982996    4.033058   -0.654331
     77          1           0       22.325781    2.805319   -0.224022
     78          1           0      -22.116030    1.471333    0.762642
 ---------------------------------------------------------------------
 Rotational constants (GHZ):           0.3708170           0.0063653           0.0062655
 Standard basis: 6-31G(d,p) (6D, 7F)
 There are   770 symmetry adapted cartesian basis functions of A   symmetry.
 There are   770 symmetry adapted basis functions of A   symmetry.
   770 basis functions,  1344 primitive gaussians,   770 cartesian basis functions
   134 alpha electrons      134 beta electrons
       nuclear repulsion energy      2598.7502048524 Hartrees.
 NAtoms=   78 NActive=   78 NUniq=   78 SFac= 1.00D+00 NAtFMM=   60 NAOKFM=T Big=T
 Integral buffers will be    131072 words long.
 Raffenetti 2 integral format.
 Two-electron integral symmetry is turned on.
 One-electron integrals computed using PRISM.
 NBasis=   770 RedAO= T EigKep=  7.32D-04  NBF=   770
 NBsUse=   770 1.00D-06 EigRej= -1.00D+00 NBFU=   770
 ExpMin= 1.61D-01 ExpMax= 3.05D+03 ExpMxC= 4.57D+02 IAcc=3 IRadAn=         5 AccDes= 0.00D+00
 Harris functional with IExCor=  402 and IRadAn=       5 diagonalized for initial guess.
 HarFok:  IExCor=  402 AccDes= 0.00D+00 IRadAn=         5 IDoV= 1 UseB2=F ITyADJ=14
 ICtDFT=  3500011 ScaDFX=  1.000000  1.000000  1.000000  1.000000
 FoFCou: FMM=F IPFlag=           0 FMFlag=      100000 FMFlg1=        2001
         NFxFlg=           0 DoJE=T BraDBF=F KetDBF=T FulRan=T
         wScrn=  0.000000 ICntrl=       500 IOpCl=  0 I1Cent=   200000004 NGrid=           0
         NMat0=    1 NMatS0=      1 NMatT0=    0 NMatD0=    1 NMtDS0=    0 NMtDT0=    0
 Petite list used in FoFCou.
 Requested convergence on RMS density matrix=1.00D-08 within 128 cycles.
 Requested convergence on MAX density matrix=1.00D-06.
 Requested convergence on             energy=1.00D-06.
 No special actions if energy rises.
 Integral accuracy reduced to 1.0D-05 until final iterations.
 Initial convergence to 1.0D-05 achieved.  Increase integral accuracy.
 SCF Done:  E(RB3LYP) =  -1471.90491086     A.U. after   13 cycles
            NFock= 13  Conv=0.79D-08     -V/T= 2.0101

 **********************************************************************

            Population analysis using the SCF Density.

 **********************************************************************

 Orbital symmetries:
       Occupied  (A) (A) (A) (A) (A) (A) (A) (A) (A) (A) (A) (A)
                 (A) (A) (A) (A) (A) (A) (A) (A) (A) (A) (A) (A)
                 (A) (A) (A) (A) (A) (A) (A) (A) (A) (A) (A) (A)
                 (A) (A) (A) (A) (A) (A) (A) (A) (A) (A) (A) (A)
                 (A) (A) (A) (A) (A) (A) (A) (A) (A) (A) (A) (A)
                 (A) (A) (A) (A) (A) (A) (A) (A) (A) (A) (A) (A)
                 (A) (A) (A) (A) (A) (A) (A) (A) (A) (A) (A) (A)
                 (A) (A) (A) (A) (A) (A) (A) (A) (A) (A) (A) (A)
                 (A) (A) (A) (A) (A) (A) (A) (A) (A) (A) (A) (A)
                 (A) (A) (A) (A) (A) (A) (A) (A) (A) (A) (A) (A)
                 (A) (A) (A) (A) (A) (A) (A) (A) (A) (A) (A) (A)
                 (A) (A)
       Virtual   (A) (A) (A) (A) (A) (A) (A) (A) (A) (A) (A) (A)
                 (A) (A) (A) (A) (A) (A) (A) (A) (A) (A) (A) (A)
                 (A) (A) (A) (A) (A) (A) (A) (A) (A) (A) (A) (A)
                 (A) (A) (A) (A) (A) (A) (A) (A) (A) (A) (A) (A)
                 (A) (A) (A) (A) (A) (A) (A) (A) (A) (A) (A) (A)
                 (A) (A) (A) (A) (A) (A) (A) (A) (A) (A) (A) (A)
                 (A) (A) (A) (A) (A) (A) (A) (A) (A) (A) (A) (A)
                 (A) (A) (A) (A) (A) (A) (A) (A) (A) (A) (A) (A)
                 (A) (A) (A) (A) (A) (A) (A) (A) (A) (A) (A) (A)
                 (A) (A) (A) (A) (A) (A) (A) (A) (A) (A) (A) (A)
                 (A) (A) (A) (A) (A) (A) (A) (A) (A) (A) (A) (A)
                 (A) (A) (A) (A) (A) (A) (A) (A) (A) (A) (A) (A)
                 (A) (A) (A) (A) (A) (A) (A) (A) (A) (A) (A) (A)
                 (A) (A) (A) (A) (A) (A) (A) (A) (A) (A) (A) (A)
                 (A) (A) (A) (A) (A) (A) (A) (A) (A) (A) (A) (A)
                 (A) (A) (A) (A) (A) (A) (A) (A) (A) (A) (A) (A)
                 (A) (A) (A) (A) (A) (A) (A) (A) (A) (A) (A) (A)
                 (A) (A) (A) (A) (A) (A) (A) (A) (A) (A) (A) (A)
                 (A) (A) (A) (A) (A) (A) (A) (A) (A) (A) (A) (A)
                 (A) (A) (A) (A) (A) (A) (A) (A) (A) (A) (A) (A)
                 (A) (A) (A) (A) (A) (A) (A) (A) (A) (A) (A) (A)
                 (A) (A) (A) (A) (A) (A) (A) (A) (A) (A) (A) (A)
                 (A) (A) (A) (A) (A) (A) (A) (A) (A) (A) (A) (A)
                 (A) (A) (A) (A) (A) (A) (A) (A) (A) (A) (A) (A)
                 (A) (A) (A) (A) (A) (A) (A) (A) (A) (A) (A) (A)
                 (A) (A) (A) (A) (A) (A) (A) (A) (A) (A) (A) (A)
                 (A) (A) (A) (A) (A) (A) (A) (A) (A) (A) (A) (A)
                 (A) (A) (A) (A) (A) (A) (A) (A) (A) (A) (A) (A)
                 (A) (A) (A) (A) (A) (A) (A) (A) (A) (A) (A) (A)
                 (A) (A) (A) (A) (A) (A) (A) (A) (A) (A) (A) (A)
                 (A) (A) (A) (A) (A) (A) (A) (A) (A) (A) (A) (A)
                 (A) (A) (A) (A) (A) (A) (A) (A) (A) (A) (A) (A)
                 (A) (A) (A) (A) (A) (A) (A) (A) (A) (A) (A) (A)
                 (A) (A) (A) (A) (A) (A) (A) (A) (A) (A) (A) (A)
                 (A) (A) (A) (A) (A) (A) (A) (A) (A) (A) (A) (A)
                 (A) (A) (A) (A) (A) (A) (A) (A) (A) (A) (A) (A)
                 (A) (A) (A) (A) (A) (A) (A) (A) (A) (A) (A) (A)
                 (A) (A) (A) (A) (A) (A) (A) (A) (A) (A) (A) (A)
                 (A) (A) (A) (A) (A) (A) (A) (A) (A) (A) (A) (A)
                 (A) (A) (A) (A) (A) (A) (A) (A) (A) (A) (A) (A)
                 (A) (A) (A) (A) (A) (A) (A) (A) (A) (A) (A) (A)
                 (A) (A) (A) (A) (A) (A) (A) (A) (A) (A) (A) (A)
                 (A) (A) (A) (A) (A) (A) (A) (A) (A) (A) (A) (A)
                 (A) (A) (A) (A) (A) (A) (A) (A) (A) (A) (A) (A)
                 (A) (A) (A) (A) (A) (A) (A) (A) (A) (A) (A) (A)
                 (A) (A) (A) (A) (A) (A) (A) (A) (A) (A) (A) (A)
                 (A) (A) (A) (A) (A) (A) (A) (A) (A) (A) (A) (A)
                 (A) (A) (A) (A) (A) (A) (A) (A) (A) (A) (A) (A)
                 (A) (A) (A) (A) (A) (A) (A) (A) (A) (A) (A) (A)
                 (A) (A) (A) (A) (A) (A) (A) (A) (A) (A) (A) (A)
                 (A) (A) (A) (A) (A) (A) (A) (A) (A) (A) (A) (A)
                 (A) (A) (A) (A) (A) (A) (A) (A) (A) (A) (A) (A)
                 (A) (A) (A) (A) (A) (A) (A) (A) (A) (A) (A) (A)
 The electronic state is 1-A.
 Alpha  occ. eigenvalues --  -10.19420 -10.19410 -10.19382 -10.19378 -10.19313
 Alpha  occ. eigenvalues --  -10.19296 -10.19264 -10.19244 -10.19242 -10.19237
 Alpha  occ. eigenvalues --  -10.19235 -10.19226 -10.19222 -10.19222 -10.19214
 Alpha  occ. eigenvalues --  -10.19203 -10.19196 -10.19189 -10.19180 -10.19167
 Alpha  occ. eigenvalues --  -10.19165 -10.19142 -10.19139 -10.19135 -10.19121
 Alpha  occ. eigenvalues --  -10.19117 -10.19115 -10.19103 -10.19094 -10.19093
 Alpha  occ. eigenvalues --  -10.19075 -10.19073 -10.19054 -10.19041 -10.19015
 Alpha  occ. eigenvalues --  -10.18936 -10.17970 -10.17914  -0.82937  -0.82858
 Alpha  occ. eigenvalues --   -0.82489  -0.82208  -0.81764  -0.81237  -0.80661
 Alpha  occ. eigenvalues --   -0.79973  -0.79207  -0.78354  -0.77424  -0.76424
 Alpha  occ. eigenvalues --   -0.75364  -0.74206  -0.73037  -0.71789  -0.70513
 Alpha  occ. eigenvalues --   -0.69600  -0.68368  -0.65102  -0.63582  -0.62602
 Alpha  occ. eigenvalues --   -0.61492  -0.60137  -0.58867  -0.57746  -0.56994
 Alpha  occ. eigenvalues --   -0.56867  -0.56796  -0.56183  -0.55893  -0.55308
 Alpha  occ. eigenvalues --   -0.55121  -0.55006  -0.54499  -0.52705  -0.51572
 Alpha  occ. eigenvalues --   -0.50162  -0.50078  -0.49191  -0.48392  -0.47850
 Alpha  occ. eigenvalues --   -0.47412  -0.47078  -0.46471  -0.45959  -0.45474
 Alpha  occ. eigenvalues --   -0.44848  -0.44437  -0.43946  -0.43194  -0.43136
 Alpha  occ. eigenvalues --   -0.41716  -0.41502  -0.40911  -0.40557  -0.39942
 Alpha  occ. eigenvalues --   -0.39360  -0.39050  -0.38642  -0.38240  -0.37873
 Alpha  occ. eigenvalues --   -0.37718  -0.37507  -0.37111  -0.36856  -0.36416
 Alpha  occ. eigenvalues --   -0.36089  -0.35867  -0.35565  -0.35302  -0.35259
 Alpha  occ. eigenvalues --   -0.35162  -0.34811  -0.34720  -0.34506  -0.34347
 Alpha  occ. eigenvalues --   -0.34320  -0.34033  -0.33795  -0.33235  -0.33196
 Alpha  occ. eigenvalues --   -0.33129  -0.32400  -0.31527  -0.30551  -0.29463
 Alpha  occ. eigenvalues --   -0.28270  -0.26977  -0.25596  -0.24119  -0.22581
 Alpha  occ. eigenvalues --   -0.21002  -0.19394  -0.18034  -0.16857
 Alpha virt. eigenvalues --   -0.08487  -0.06884  -0.05642  -0.03942  -0.02081
 Alpha virt. eigenvalues --   -0.00365   0.01433   0.03043   0.04526   0.05820
 Alpha virt. eigenvalues --    0.07150   0.07803   0.08107   0.08235   0.08538
 Alpha virt. eigenvalues --    0.08923   0.09000   0.09502   0.09654   0.09728
 Alpha virt. eigenvalues --    0.09896   0.10358   0.11199   0.11339   0.11710
 Alpha virt. eigenvalues --    0.12045   0.12159   0.12394   0.12460   0.12617
 Alpha virt. eigenvalues --    0.13060   0.13173   0.13802   0.13915   0.14140
 Alpha virt. eigenvalues --    0.14274   0.14328   0.14416   0.14582   0.14869
 Alpha virt. eigenvalues --    0.15207   0.15439   0.15487   0.15731   0.16180
 Alpha virt. eigenvalues --    0.16549   0.17331   0.18206   0.18989   0.19313
 Alpha virt. eigenvalues --    0.19737   0.19955   0.20611   0.21196   0.21996
 Alpha virt. eigenvalues --    0.22565   0.22836   0.23752   0.25797   0.25885
 Alpha virt. eigenvalues --    0.27137   0.27302   0.28133   0.28566   0.28733
 Alpha virt. eigenvalues --    0.28967   0.30038   0.31125   0.31519   0.31898
 Alpha virt. eigenvalues --    0.32641   0.32713   0.33219   0.33698   0.34536
 Alpha virt. eigenvalues --    0.34935   0.35995   0.36196   0.36468   0.37135
 Alpha virt. eigenvalues --    0.37963   0.38391   0.38659   0.39456   0.40238
 Alpha virt. eigenvalues --    0.41421   0.41715   0.41791   0.42023   0.42204
 Alpha virt. eigenvalues --    0.43562   0.44409   0.44938   0.45739   0.46003
 Alpha virt. eigenvalues --    0.47659   0.48663   0.49074   0.51264   0.51347
 Alpha virt. eigenvalues --    0.51584   0.51745   0.52001   0.52399   0.52708
 Alpha virt. eigenvalues --    0.52877   0.53493   0.53705   0.54008   0.54205
 Alpha virt. eigenvalues --    0.54906   0.55007   0.55524   0.55919   0.56091
 Alpha virt. eigenvalues --    0.56833   0.56903   0.57202   0.57408   0.57532
 Alpha virt. eigenvalues --    0.57816   0.58122   0.58169   0.58726   0.58813
 Alpha virt. eigenvalues --    0.58935   0.58948   0.59213   0.59268   0.59324
 Alpha virt. eigenvalues --    0.59965   0.60309   0.60382   0.60907   0.61136
 Alpha virt. eigenvalues --    0.61179   0.61383   0.61869   0.62173   0.62348
 Alpha virt. eigenvalues --    0.62807   0.63041   0.63391   0.63594   0.64099
 Alpha virt. eigenvalues --    0.64290   0.64453   0.64934   0.65112   0.65159
 Alpha virt. eigenvalues --    0.65376   0.65535   0.65850   0.66038   0.66447
 Alpha virt. eigenvalues --    0.66491   0.66523   0.66820   0.67939   0.68103
 Alpha virt. eigenvalues --    0.68235   0.68391   0.68711   0.69549   0.69782
 Alpha virt. eigenvalues --    0.70323   0.70874   0.71971   0.72677   0.73769
 Alpha virt. eigenvalues --    0.74990   0.75269   0.75800   0.76210   0.78752
 Alpha virt. eigenvalues --    0.78788   0.79515   0.79709   0.80564   0.80911
 Alpha virt. eigenvalues --    0.81488   0.81614   0.81865   0.82936   0.83125
 Alpha virt. eigenvalues --    0.83819   0.84128   0.84506   0.84636   0.84836
 Alpha virt. eigenvalues --    0.85024   0.85387   0.85620   0.85944   0.86253
 Alpha virt. eigenvalues --    0.86563   0.86724   0.86747   0.86997   0.87206
 Alpha virt. eigenvalues --    0.87402   0.87684   0.87800   0.88297   0.88477
 Alpha virt. eigenvalues --    0.89098   0.89127   0.89741   0.90229   0.90786
 Alpha virt. eigenvalues --    0.91014   0.91511   0.91628   0.92092   0.92399
 Alpha virt. eigenvalues --    0.92925   0.93167   0.93479   0.93783   0.94208
 Alpha virt. eigenvalues --    0.94973   0.95518   0.95963   0.96502   0.97329
 Alpha virt. eigenvalues --    0.97552   0.98598   1.00990   1.02660   1.02978
 Alpha virt. eigenvalues --    1.03298   1.03443   1.03725   1.04255   1.04463
 Alpha virt. eigenvalues --    1.05195   1.05524   1.05678   1.06097   1.07012
 Alpha virt. eigenvalues --    1.07222   1.07695   1.08006   1.08931   1.09130
 Alpha virt. eigenvalues --    1.09454   1.10333   1.10607   1.10846   1.10934
 Alpha virt. eigenvalues --    1.11774   1.13420   1.17119   1.17719   1.18279
 Alpha virt. eigenvalues --    1.18792   1.19156   1.19653   1.20878   1.21132
 Alpha virt. eigenvalues --    1.21355   1.22391   1.23862   1.24447   1.26610
 Alpha virt. eigenvalues --    1.27735   1.28176   1.29019   1.29282   1.29445
 Alpha virt. eigenvalues --    1.29771   1.29938   1.30089   1.30334   1.30491
 Alpha virt. eigenvalues --    1.30805   1.31168   1.31248   1.31366   1.31510
 Alpha virt. eigenvalues --    1.31657   1.32179   1.32332   1.32534   1.32696
 Alpha virt. eigenvalues --    1.32806   1.32844   1.33085   1.33524   1.33791
 Alpha virt. eigenvalues --    1.34567   1.34608   1.36566   1.37148   1.37717
 Alpha virt. eigenvalues --    1.38499   1.38618   1.40233   1.40757   1.42304
 Alpha virt. eigenvalues --    1.42971   1.43182   1.43907   1.44046   1.45279
 Alpha virt. eigenvalues --    1.45730   1.45985   1.46536   1.46900   1.47120
 Alpha virt. eigenvalues --    1.47974   1.48119   1.48641   1.48863   1.49296
 Alpha virt. eigenvalues --    1.49733   1.50561   1.50639   1.51420   1.51796
 Alpha virt. eigenvalues --    1.51835   1.52415   1.52596   1.53529   1.57316
 Alpha virt. eigenvalues --    1.57762   1.68067   1.73958   1.75160   1.75349
 Alpha virt. eigenvalues --    1.75556   1.76339   1.76489   1.76570   1.76613
 Alpha virt. eigenvalues --    1.76771   1.76927   1.77110   1.77410   1.77939
 Alpha virt. eigenvalues --    1.78073   1.78128   1.78441   1.78752   1.78949
 Alpha virt. eigenvalues --    1.83012   1.83063   1.85776   1.85910   1.86093
 Alpha virt. eigenvalues --    1.86256   1.87294   1.87789   1.88766   1.89492
 Alpha virt. eigenvalues --    1.89724   1.90818   1.91924   1.92115   1.92413
 Alpha virt. eigenvalues --    1.92625   1.92754   1.92945   1.93315   1.93860
 Alpha virt. eigenvalues --    1.94093   1.94210   1.94421   1.94805   1.94874
 Alpha virt. eigenvalues --    1.95376   1.96137   1.96221   1.96519   1.98118
 Alpha virt. eigenvalues --    1.98202   1.98768   2.00048   2.00417   2.02175
 Alpha virt. eigenvalues --    2.02253   2.03148   2.03368   2.03922   2.04121
 Alpha virt. eigenvalues --    2.05381   2.05559   2.07180   2.07610   2.07936
 Alpha virt. eigenvalues --    2.08851   2.09006   2.09341   2.10179   2.10329
 Alpha virt. eigenvalues --    2.11136   2.11198   2.12120   2.12703   2.14106
 Alpha virt. eigenvalues --    2.14501   2.15249   2.15398   2.16183   2.16647
 Alpha virt. eigenvalues --    2.17360   2.17996   2.18181   2.18656   2.19510
 Alpha virt. eigenvalues --    2.20471   2.20916   2.21759   2.22042   2.22091
 Alpha virt. eigenvalues --    2.22306   2.23450   2.23974   2.24289   2.25057
 Alpha virt. eigenvalues --    2.26279   2.26696   2.27813   2.28109   2.29250
 Alpha virt. eigenvalues --    2.30131   2.30791   2.32105   2.32501   2.33444
 Alpha virt. eigenvalues --    2.34379   2.34706   2.35809   2.36758   2.37259
 Alpha virt. eigenvalues --    2.37449   2.38258   2.39720   2.40510   2.41600
 Alpha virt. eigenvalues --    2.41614   2.42312   2.44060   2.44728   2.44796
 Alpha virt. eigenvalues --    2.45066   2.45660   2.46388   2.46597   2.46907
 Alpha virt. eigenvalues --    2.47504   2.47950   2.48314   2.48562   2.48681
 Alpha virt. eigenvalues --    2.49192   2.49878   2.50215   2.50363   2.50924
 Alpha virt. eigenvalues --    2.51128   2.51500   2.51646   2.51958   2.52497
 Alpha virt. eigenvalues --    2.52727   2.52756   2.52944   2.53483   2.53756
 Alpha virt. eigenvalues --    2.54639   2.54882   2.55149   2.55468   2.55805
 Alpha virt. eigenvalues --    2.56552   2.56673   2.57177   2.57948   2.58695
 Alpha virt. eigenvalues --    2.58877   2.59122   2.59498   2.60635   2.60681
 Alpha virt. eigenvalues --    2.61072   2.61253   2.61441   2.62488   2.62528
 Alpha virt. eigenvalues --    2.63219   2.63633   2.63845   2.64142   2.65018
 Alpha virt. eigenvalues --    2.65780   2.66438   2.67155   2.67293   2.67792
 Alpha virt. eigenvalues --    2.67938   2.68196   2.68460   2.69099   2.69217
 Alpha virt. eigenvalues --    2.69638   2.69726   2.70068   2.70181   2.70616
 Alpha virt. eigenvalues --    2.70674   2.70971   2.71476   2.71864   2.72459
 Alpha virt. eigenvalues --    2.73424   2.74180   2.75609   2.78759   2.79004
 Alpha virt. eigenvalues --    2.79837   2.81548   2.83143   2.83957   2.85166
 Alpha virt. eigenvalues --    2.86235   2.86565   2.86670   2.88861   2.89012
 Alpha virt. eigenvalues --    2.91156   2.91323   2.91455   2.91525   2.91837
 Alpha virt. eigenvalues --    2.92188   2.92656   2.92890   2.93923   2.94816
 Alpha virt. eigenvalues --    2.94903   2.95753   2.96262   2.97335   2.97414
 Alpha virt. eigenvalues --    2.98484   2.99005   2.99700   2.99827   2.99915
 Alpha virt. eigenvalues --    3.00528   3.01397   3.03053   3.05585   3.10774
 Alpha virt. eigenvalues --    3.16048   3.16230   3.20289   3.26234   3.28033
 Alpha virt. eigenvalues --    3.32868   3.33053   3.33257   3.33893   3.34926
 Alpha virt. eigenvalues --    3.35389   3.35466   3.35576   3.36547   3.37380
 Alpha virt. eigenvalues --    3.38552   3.38581   3.40989   3.41257   3.44636
 Alpha virt. eigenvalues --    3.45211   3.48506   3.49091   3.51107   3.52701
 Alpha virt. eigenvalues --    3.53004   3.54177   3.55209   3.56158   3.56454
 Alpha virt. eigenvalues --    3.59492   3.60417   3.61328   3.62893   3.64131
 Alpha virt. eigenvalues --    3.65696   3.66140   3.66754   3.66991   3.71041
 Alpha virt. eigenvalues --    3.72893   3.78238   3.79262   4.10816   4.11669
 Alpha virt. eigenvalues --    4.12246   4.13554   4.13746   4.13812   4.13947
 Alpha virt. eigenvalues --    4.14117   4.14343   4.14681   4.15120   4.15629
 Alpha virt. eigenvalues --    4.16266   4.17254   4.18145   4.19295   4.20756
 Alpha virt. eigenvalues --    4.21587   4.25756   4.27168   4.29982   4.31058
 Alpha virt. eigenvalues --    4.34271   4.36848   4.39770   4.43221   4.46523
 Alpha virt. eigenvalues --    4.49932   4.53437   4.56980   4.60413   4.63767
 Alpha virt. eigenvalues --    4.67017   4.69719   4.72129   4.74105   4.75206
 Alpha virt. eigenvalues --    4.76635
          Condensed to atoms (all electrons):
 Mulliken charges:
               1
     1  C   -0.237098
     2  C   -0.050621
     3  C   -0.079254
     4  C   -0.076740
     5  C   -0.107648
     6  C   -0.055664
     7  C   -0.075898
     8  C   -0.083012
     9  C   -0.079333
    10  C   -0.079910
    11  C   -0.078615
    12  C   -0.080592
    13  C   -0.081652
    14  C   -0.077196
    15  C   -0.055805
    16  C   -0.106040
    17  C   -0.075853
    18  C   -0.085375
    19  C   -0.082499
    20  C   -0.078976
    21  C   -0.079133
    22  C   -0.082362
    23  C   -0.085441
    24  C   -0.075777
    25  C   -0.106274
    26  C   -0.055728
    27  C   -0.077251
    28  C   -0.081709
    29  C   -0.080617
    30  C   -0.078625
    31  C   -0.080340
    32  C   -0.079468
    33  C   -0.079397
    34  C   -0.080569
    35  C   -0.076986
    36  C   -0.077786
    37  C   -0.033654
    38  C   -0.251975
    39  H    0.096119
    40  H    0.084391
    41  H    0.078906
    42  H    0.079955
    43  H    0.080485
    44  H    0.081486
    45  H    0.080986
    46  H    0.080069
    47  H    0.080833
    48  H    0.080126
    49  H    0.080774
    50  H    0.080346
    51  H    0.080841
    52  H    0.080848
    53  H    0.082100
    54  H    0.080272
    55  H    0.080234
    56  H    0.079735
    57  H    0.080849
    58  H    0.080172
    59  H    0.080169
    60  H    0.080844
    61  H    0.079653
    62  H    0.080190
    63  H    0.080206
    64  H    0.081979
    65  H    0.080750
    66  H    0.080662
    67  H    0.080244
    68  H    0.080541
    69  H    0.080042
    70  H    0.080459
    71  H    0.080141
    72  H    0.080683
    73  H    0.080892
    74  H    0.081622
    75  H    0.083681
    76  H    0.095501
    77  H    0.095351
    78  H    0.097740
 Sum of Mulliken charges =  -0.00000
 Mulliken charges with hydrogens summed into heavy atoms:
               1
     1  C   -0.043239
     2  C    0.033770
     3  C   -0.000349
     4  C    0.003215
     5  C   -0.027163
     6  C    0.025822
     7  C    0.005087
     8  C   -0.002944
     9  C    0.001500
    10  C    0.000216
    11  C    0.002159
    12  C   -0.000245
    13  C   -0.000812
    14  C    0.003652
    15  C    0.026295
    16  C   -0.025768
    17  C    0.004381
    18  C   -0.005640
    19  C   -0.001651
    20  C    0.001196
    21  C    0.001036
    22  C   -0.001518
    23  C   -0.005788
    24  C    0.004413
    25  C   -0.026068
    26  C    0.026251
    27  C    0.003499
    28  C   -0.001048
    29  C   -0.000373
    30  C    0.001916
    31  C   -0.000298
    32  C    0.000991
    33  C    0.000744
    34  C    0.000113
    35  C    0.003906
    36  C    0.003836
    37  C    0.050027
    38  C   -0.061123
 Electronic spatial extent (au):  <R**2>=         157360.8756
 Charge=             -0.0000 electrons
 Dipole moment (field-independent basis, Debye):
    X=              0.2213    Y=             -0.1779    Z=              0.0939  Tot=              0.2991
 Quadrupole moment (field-independent basis, Debye-Ang):
   XX=           -222.3393   YY=           -201.2585   ZZ=           -244.9701
   XY=             -0.7615   XZ=              0.2324   YZ=             -6.6519
 Traceless Quadrupole moment (field-independent basis, Debye-Ang):
   XX=              0.5167   YY=             21.5975   ZZ=            -22.1142
   XY=             -0.7615   XZ=              0.2324   YZ=             -6.6519
 Octapole moment (field-independent basis, Debye-Ang**2):
  XXX=             90.3539  YYY=             -5.9995  ZZZ=              0.4729  XYY=            -30.9512
  XXY=           -131.0060  XXZ=             70.7837  XZZ=             18.7176  YZZ=             -0.7427
  YYZ=              1.0864  XYZ=            -67.4482
 Hexadecapole moment (field-independent basis, Debye-Ang**3):
 XXXX=        -210042.5599 YYYY=          -3558.8885 ZZZZ=           -407.2043 XXXY=           -686.5562
 XXXZ=           -133.7221 YYYX=           -131.0817 YYYZ=            -63.1767 ZZZX=              9.4183
 ZZZY=             -8.8934 XXYY=         -33490.1804 XXZZ=         -39545.6233 YYZZ=           -768.6957
 XXYZ=           -971.0226 YYXZ=           -139.2679 ZZXY=              4.0539
 N-N= 2.598750204852D+03 E-N=-8.602088476076D+03  KE= 1.457124942355D+03
 Calling FoFJK, ICntrl=      2127 FMM=T ISym2X=0 I1Cent= 0 IOpClX= 0 NMat=1 NMatS=1 NMatT=0.
 ***** Axes restored to original set *****
 -------------------------------------------------------------------
 Center     Atomic                   Forces (Hartrees/Bohr)
 Number     Number              X              Y              Z
 -------------------------------------------------------------------
      1        6          -0.004488993    0.004936468   -0.004936879
      2        6           0.013884891   -0.008635707    0.006765890
      3        6          -0.022454900    0.006209815   -0.001027863
      4        6           0.027349005   -0.007343856    0.000752051
      5        6          -0.031356825    0.010261583   -0.003227849
      6        6           0.027208423   -0.019894900    0.016320048
      7        6          -0.033713046    0.016998893   -0.010312613
      8        6           0.032453803   -0.017644970    0.010920225
      9        6          -0.032915706    0.017942180   -0.010642850
     10        6           0.033164538   -0.018197320    0.010128793
     11        6          -0.033087295    0.018278775   -0.009584714
     12        6           0.033707887   -0.018572652    0.008816257
     13        6          -0.033279863    0.018370210   -0.007980957
     14        6           0.035295648   -0.018393181    0.006186919
     15        6          -0.030675335    0.020431814   -0.011212698
     16        6           0.033734590   -0.012830268   -0.003590152
     17        6          -0.029856511    0.012879942    0.001224705
     18        6           0.030967745   -0.012295887   -0.003027432
     19        6          -0.030492504    0.014690895   -0.001198042
     20        6           0.029603814   -0.015413089    0.000748331
     21        6          -0.030494655    0.012912621    0.004336976
     22        6           0.031133209   -0.012761378   -0.004105980
     23        6          -0.030032401    0.014575715   -0.000344113
     24        6           0.029336326   -0.013885203   -0.001630627
     25        6          -0.032303302    0.016349402   -0.000600880
     26        6           0.034273064   -0.009536682   -0.014693528
     27        6          -0.036831247    0.013176344    0.009167841
     28        6           0.035261455   -0.011842158   -0.010778978
     29        6          -0.035761705    0.011535095    0.011418721
     30        6           0.035125824   -0.011060526   -0.011838254
     31        6          -0.035115936    0.010644011    0.012279839
     32        6           0.034519326   -0.010304748   -0.012463146
     33        6          -0.034178489    0.009740858    0.013105076
     34        6           0.033092071   -0.009323321   -0.012972572
     35        6          -0.031788356    0.008096886    0.014470642
     36        6           0.027994822   -0.006704857   -0.013889685
     37        6          -0.018859126    0.001851489    0.016278610
     38        6           0.008692172   -0.003426735   -0.000781034
     39        1          -0.001001127   -0.001057048    0.001660948
     40        1           0.002571594    0.000637649   -0.001540748
     41        1           0.003532430    0.000364085   -0.001552854
     42        1          -0.003016833   -0.000353929    0.001488038
     43        1          -0.000354680   -0.000284210    0.000602982
     44        1           0.001940417    0.001251439   -0.002070257
     45        1          -0.003280544    0.000563726    0.000645642
     46        1           0.003281726   -0.000394178   -0.000448775
     47        1          -0.003178638    0.000623881    0.000745055
     48        1           0.003266245   -0.000436312   -0.000464537
     49        1          -0.003133043    0.000677358    0.000886377
     50        1           0.003243190   -0.000470992   -0.000549101
     51        1          -0.003088885    0.000701864    0.001063530
     52        1           0.003293568   -0.000537989   -0.000688186
     53        1          -0.001938742   -0.000630306    0.002177082
     54        1           0.000037098    0.000476402   -0.000212901
     55        1           0.003989755    0.000005755   -0.002330440
     56        1          -0.001722776   -0.000451496    0.002237672
     57        1           0.001122608   -0.001780613    0.002111642
     58        1          -0.002554439    0.002587184   -0.002330827
     59        1           0.003437951   -0.000028199   -0.002607197
     60        1          -0.001827708   -0.000292730    0.002355013
     61        1           0.001028572   -0.001638322    0.002118682
     62        1          -0.003054521    0.002543128   -0.002290757
     63        1           0.000121857    0.000041588   -0.000469302
     64        1           0.001165053   -0.001566630    0.002293112
     65        1          -0.002884655    0.001661543   -0.000756007
     66        1           0.002704594   -0.001766482    0.000881874
     67        1          -0.002850302    0.001560689   -0.000711235
     68        1           0.002752586   -0.001692422    0.000790365
     69        1          -0.002873474    0.001522331   -0.000696575
     70        1           0.002794495   -0.001632786    0.000747480
     71        1          -0.002873653    0.001496435   -0.000691163
     72        1           0.002818162   -0.001569888    0.000704643
     73        1          -0.002849874    0.001476344   -0.000686932
     74        1           0.003033661   -0.001612386    0.000685685
     75        1          -0.004320232    0.002588992   -0.001948575
     76        1           0.002154177   -0.001109156    0.000423687
     77        1           0.000626124   -0.001822241    0.004070267
     78        1          -0.001224156   -0.001467636    0.002276517
 -------------------------------------------------------------------
 Cartesian Forces:  Max     0.036831247 RMS     0.014071245

 GradGradGradGradGradGradGradGradGradGradGradGradGradGradGradGradGradGrad
 Berny optimization.
 FormGI is forming the generalized inverse of G from B-inverse, IUseBI=4.
 Internal  Forces:  Max     0.022883391 RMS     0.007461140
 Search for a local minimum.
 Step number   1 out of a maximum of  349
 All quantities printed in internal units (Hartrees-Bohrs-Radians)
 Mixed Optimization -- RFO/linear search
 Second derivative matrix not updated -- first step.
 ITU=  0
     Eigenvalues ---    0.00875   0.00875   0.00919   0.00937   0.00942
     Eigenvalues ---    0.00955   0.00958   0.01042   0.01044   0.01045
     Eigenvalues ---    0.01054   0.01054   0.01055   0.01056   0.01056
     Eigenvalues ---    0.01056   0.01056   0.01064   0.01851   0.01852
     Eigenvalues ---    0.01853   0.01853   0.01878   0.01890   0.01891
     Eigenvalues ---    0.01896   0.01896   0.01903   0.01905   0.01913
     Eigenvalues ---    0.01915   0.01918   0.01959   0.01960   0.01961
     Eigenvalues ---    0.01969   0.01970   0.01972   0.01975   0.01976
     Eigenvalues ---    0.01976   0.01977   0.01977   0.01977   0.01978
     Eigenvalues ---    0.01978   0.01978   0.01978   0.01978   0.01978
     Eigenvalues ---    0.01979   0.01979   0.01982   0.01998   0.02748
     Eigenvalues ---    0.02748   0.02749   0.02750   0.02753   0.02821
     Eigenvalues ---    0.02824   0.02824   0.02887   0.02887   0.02888
     Eigenvalues ---    0.02888   0.02889   0.02891   0.02891   0.02891
     Eigenvalues ---    0.02891   0.02891   0.02892   0.02950   0.02950
     Eigenvalues ---    0.15998   0.15998   0.15998   0.15998   0.15998
     Eigenvalues ---    0.15998   0.15999   0.15999   0.15999   0.15999
     Eigenvalues ---    0.15999   0.15999   0.16000   0.16000   0.16000
     Eigenvalues ---    0.16000   0.16000   0.16000   0.16000   0.16000
     Eigenvalues ---    0.16000   0.16000   0.16000   0.16000   0.16000
     Eigenvalues ---    0.16000   0.16000   0.16000   0.16000   0.16000
     Eigenvalues ---    0.16000   0.16000   0.16000   0.16000   0.16000
     Eigenvalues ---    0.16000   0.16000   0.16000   0.16000   0.16000
     Eigenvalues ---    0.22000   0.22000   0.22000   0.22000   0.22000
     Eigenvalues ---    0.22000   0.22000   0.22000   0.22000   0.22000
     Eigenvalues ---    0.22000   0.22000   0.22000   0.22000   0.22000
     Eigenvalues ---    0.22000   0.22000   0.22000   0.22000   0.22000
     Eigenvalues ---    0.22000   0.22000   0.22000   0.22000   0.22000
     Eigenvalues ---    0.22000   0.22000   0.22000   0.22000   0.22000
     Eigenvalues ---    0.22000   0.22001   0.22001   0.22001   0.22001
     Eigenvalues ---    0.22001   0.33259   0.33261   0.33620   0.33769
     Eigenvalues ---    0.33819   0.33927   0.33948   0.34673   0.34684
     Eigenvalues ---    0.34698   0.34774   0.34778   0.34782   0.34788
     Eigenvalues ---    0.34788   0.34789   0.34790   0.34859   0.35042
     Eigenvalues ---    0.35048   0.35049   0.35054   0.35056   0.35061
     Eigenvalues ---    0.35063   0.35067   0.35069   0.35089   0.35094
     Eigenvalues ---    0.35095   0.35100   0.35101   0.35106   0.35107
     Eigenvalues ---    0.35113   0.35113   0.35147   0.35151   0.35183
     Eigenvalues ---    0.35184   0.35276   0.35281   0.35357   0.35367
     Eigenvalues ---    0.35560   0.35564   0.35643   0.35688   0.35691
     Eigenvalues ---    0.35724   0.35725   0.35741   0.35752   0.35795
     Eigenvalues ---    0.35905   0.35905   0.35915   0.35919   0.54989
     Eigenvalues ---    0.54993   0.55007   0.55014   0.55063   0.56184
     Eigenvalues ---    0.56226   0.56231   0.57284   0.57293   0.57295
     Eigenvalues ---    0.57313   0.57347   0.57349   0.57349   0.57353
     Eigenvalues ---    0.57354   0.57364   0.58362
 RFO step:  Lambda=-5.14714793D-02 EMin= 8.75131182D-03
 Linear search not attempted -- first point.
 Maximum step size (   0.300) exceeded in Quadratic search.
    -- Step size scaled by   0.762
 Iteration  1 RMS(Cart)=  0.28567554 RMS(Int)=  0.00246363
 Iteration  2 RMS(Cart)=  0.01734901 RMS(Int)=  0.00002585
 Iteration  3 RMS(Cart)=  0.00012500 RMS(Int)=  0.00000926
 Iteration  4 RMS(Cart)=  0.00000001 RMS(Int)=  0.00000926
 Variable       Old X    -DE/DX   Delta X   Delta X   Delta X     New X
                                 (Linear)    (Quad)   (Total)
    R1        2.53157   0.00433   0.00000   0.00528   0.00528   2.53685
    R2        2.04471   0.00193   0.00000   0.00359   0.00359   2.04830
    R3        2.05100  -0.00006   0.00000  -0.00011  -0.00011   2.05089
    R4        2.81021  -0.01163   0.00000  -0.02275  -0.02275   2.78746
    R5        2.05229   0.00128   0.00000   0.00241   0.00241   2.05469
    R6        2.55076   0.00170   0.00000   0.00215   0.00215   2.55291
    R7        2.04403   0.00356   0.00000   0.00663   0.00663   2.05066
    R8        2.81277  -0.01696   0.00000  -0.03332  -0.03332   2.77945
    R9        2.04488   0.00317   0.00000   0.00590   0.00590   2.05078
   R10        2.54094   0.01331   0.00000   0.01652   0.01652   2.55747
   R11        2.05378   0.00061   0.00000   0.00114   0.00114   2.05492
   R12        2.79509  -0.02069   0.00000  -0.03956  -0.03956   2.75553
   R13        2.04644   0.00228   0.00000   0.00426   0.00426   2.05069
   R14        2.53132   0.02236   0.00000   0.02727   0.02727   2.55859
   R15        2.05523  -0.00014   0.00000  -0.00026  -0.00026   2.05497
   R16        2.79320  -0.01974   0.00000  -0.03764  -0.03764   2.75556
   R17        2.05573  -0.00019   0.00000  -0.00037  -0.00037   2.05536
   R18        2.53089   0.02268   0.00000   0.02763   0.02763   2.55852
   R19        2.05511  -0.00013   0.00000  -0.00024  -0.00024   2.05486
   R20        2.79317  -0.01973   0.00000  -0.03763  -0.03763   2.75554
   R21        2.05587  -0.00026   0.00000  -0.00050  -0.00050   2.05537
   R22        2.53099   0.02278   0.00000   0.02776   0.02776   2.55875
   R23        2.05502  -0.00011   0.00000  -0.00021  -0.00021   2.05481
   R24        2.79320  -0.01999   0.00000  -0.03811  -0.03811   2.75508
   R25        2.05597  -0.00029   0.00000  -0.00055  -0.00055   2.05541
   R26        2.53149   0.02288   0.00000   0.02791   0.02791   2.55941
   R27        2.05491  -0.00006   0.00000  -0.00012  -0.00012   2.05480
   R28        2.79468  -0.02132   0.00000  -0.04075  -0.04075   2.75392
   R29        2.05607  -0.00033   0.00000  -0.00062  -0.00062   2.05545
   R30        2.54059   0.01563   0.00000   0.01940   0.01940   2.55998
   R31        2.04776   0.00176   0.00000   0.00330   0.00330   2.05106
   R32        2.80718  -0.01782   0.00000  -0.03472  -0.03472   2.77246
   R33        2.05437   0.00045   0.00000   0.00084   0.00084   2.05521
   R34        2.55119   0.00623   0.00000   0.00789   0.00789   2.55908
   R35        2.04209   0.00406   0.00000   0.00753   0.00753   2.04962
   R36        2.81899  -0.02087   0.00000  -0.04139  -0.04139   2.77761
   R37        2.04572   0.00285   0.00000   0.00531   0.00531   2.05103
   R38        2.55142   0.00644   0.00000   0.00816   0.00816   2.55957
   R39        2.04515   0.00294   0.00000   0.00548   0.00548   2.05063
   R40        2.80937  -0.01875   0.00000  -0.03665  -0.03665   2.77272
   R41        2.04230   0.00390   0.00000   0.00724   0.00724   2.04955
   R42        2.55126   0.00654   0.00000   0.00828   0.00828   2.55954
   R43        2.04231   0.00391   0.00000   0.00725   0.00725   2.04956
   R44        2.81895  -0.02087   0.00000  -0.04138  -0.04138   2.77757
   R45        2.04513   0.00296   0.00000   0.00551   0.00551   2.05064
   R46        2.55138   0.00608   0.00000   0.00770   0.00770   2.55909
   R47        2.04568   0.00286   0.00000   0.00533   0.00533   2.05101
   R48        2.80753  -0.01790   0.00000  -0.03489  -0.03489   2.77264
   R49        2.04215   0.00404   0.00000   0.00749   0.00749   2.04964
[...]
 019,-0.00000011,0.00000018,0.00000038,-0.00000016,0.00000018,0.0000004
 5,-0.00000012,-0.00000005,0.00000068,-0.00000033,0.00000038,0.00000082
 ,0.00000016,0.00000053,0.00000168,-0.00000083,0.00000066,0.00000148,-0
 .00000164,-0.00000519,-0.00000026,-0.00000304,0.00000189,0.00000329,0.
 00000576,0.00000103,0.00001077,-0.00003353,0.00001453,0.00000302,0.000
 16457,-0.00000493,0.00024302,-0.00102147,0.00039711,0.00034607,-0.0004
 2961,0.00643818,0.00173900,-0.12552303,-0.09670352,0.24234350,-0.00000
 364,0.00000124,-0.00000022,0.00000248,-0.00000488,-0.00000022,-0.00000
 216,0.00000342,0.00000025,0.00000492,0.00000155,-0.00000233,-0.0000045
 6,-0.00000082,0.00000140,0.00000211,-0.00000421,0.00000363,-0.00000255
 ,0.00000347,-0.00000269,0.00000226,-0.00000454,0.00000373,-0.00000200,
 0.00000367,-0.00000309,0.00000187,-0.00000481,0.00000444,-0.00000150,0
 .00000386,-0.00000359,0.00000137,-0.00000522,0.00000504,-0.00000103,0.
 00000404,-0.00000400,0.00000111,-0.00000562,0.00000585,-0.00000103,0.0
 0000375,-0.00000376,0.00000139,-0.00000865,0.00000849,-0.00000168,0.00
 000596,-0.00000570,0.00000781,0.00000473,-0.00000885,-0.00000744,-0.00
 000345,0.00000732,0.00000434,-0.00000995,0.00000956,-0.00000480,0.0000
 0937,-0.00000903,0.00001239,0.00000286,-0.00001092,-0.00001351,-0.0000
 0369,0.00001262,0.00001046,-0.00001233,0.00001163,-0.00001132,0.000014
 52,-0.00001454,0.00001769,-0.00000419,-0.00000696,-0.00001809,0.000006
 67,0.00000177,0.00002516,-0.00000163,-0.00000529,-0.00002545,0.0000094
 8,-0.00000085,0.00002635,-0.00002562,-0.00002019,-0.00004040,0.0000224
 3,-0.00000238,0.00008489,0.00006769,0.00003809,-0.00012089,0.00002957,
 -0.00001386,-0.00005003,-0.00032402,-0.00039048,-0.00050590,0.00014327
 ,0.00024439,0.00235231,0.00392032,-0.00002595,-0.00851482,0.00234519,0
 .00443716,-0.31069655,0.09052074,0.04039146,0.00000033,0.00000008,-0.0
 0000020,-0.00000053,0.00000115,-0.00000028,0.00000043,-0.00000005,0.00
 000028,-0.00000105,0.00000011,0.00000031,0.00000044,0.00000007,-0.0000
 0027,-0.00000031,0.00000071,-0.00000058,0.00000010,0.00000024,-0.00000
 005,-0.00000036,0.00000086,-0.00000080,-0.00000001,0.00000022,-0.00000
 021,-0.00000037,0.00000097,-0.00000088,-0.00000004,0.00000029,-0.00000
 028,-0.00000042,0.00000108,-0.00000097,-0.00000005,0.00000043,-0.00000
 039,-0.00000047,0.00000126,-0.00000116,-0.00000001,0.00000048,-0.00000
 057,-0.00000108,0.00000178,-0.00000143,0.00000070,-0.00000031,0.000000
 27,-0.00000175,-0.00000014,0.00000113,0.00000064,0.00000003,-0.0000004
 8,-0.00000139,0.00000166,-0.00000131,0.00000066,-0.00000040,0.00000042
 ,-0.00000206,-0.00000008,0.00000139,0.00000084,0.00000027,-0.00000071,
 -0.00000183,0.00000217,-0.00000182,0.00000062,-0.00000062,0.00000058,-
 0.00000219,-0.00000039,0.00000213,-0.00000066,-0.00000032,0.00000162,-
 0.00000268,-0.00000080,0.00000324,-0.00000139,-0.00000130,0.00000138,-
 0.00000284,-0.00000091,0.00000421,0.00000136,0.00000510,0.00000565,-0.
 00000252,-0.00000226,0.00000530,-0.00000754,-0.00001963,-0.00001234,0.
 00001023,-0.00000387,0.00001486,0.00000960,0.00007674,-0.00002912,0.00
 029787,-0.00022076,-0.00003590,0.00018607,-0.00191335,-0.00160230,-0.0
 0876955,0.00499985,-0.00048140,0.32576215,0.00000268,-0.00000106,0.000
 00006,-0.00000191,0.00000367,0.00000012,0.00000155,-0.00000276,-0.0000
 0018,-0.00000375,-0.00000127,0.00000174,0.00000344,0.00000049,-0.00000
 104,-0.00000166,0.00000321,-0.00000283,0.00000176,-0.00000277,0.000002
 18,-0.00000151,0.00000355,-0.00000305,0.00000136,-0.00000288,0.0000025
 3,-0.00000122,0.00000380,-0.00000362,0.00000097,-0.00000309,0.00000298
 ,-0.00000084,0.00000419,-0.00000420,0.00000058,-0.00000333,0.00000337,
 -0.00000059,0.00000449,-0.00000489,0.00000036,-0.00000320,0.00000338,-
 0.00000058,0.00000677,-0.00000707,0.00000094,-0.00000426,0.00000398,-0
 .00000556,-0.00000462,0.00000746,0.00000476,0.00000243,-0.00000511,-0.
 00000200,0.00000784,-0.00000849,0.00000265,-0.00000631,0.00000596,-0.0
 0000823,-0.00000425,0.00000980,0.00000782,0.00000250,-0.00000820,-0.00
 000438,0.00001000,-0.00001118,0.00000567,-0.00000892,0.00000859,-0.000
 01068,-0.00000387,0.00000743,0.00000960,0.00000065,-0.00000669,-0.0000
 0768,0.00000419,0.00001741,0.00001042,-0.00000092,-0.00001151,-0.00002
 964,-0.00004804,-0.00000906,0.00002177,0.00000864,-0.00001322,0.000066
 09,0.00016313,0.00017054,0.00006706,-0.00004380,-0.00008496,-0.0003642
 5,-0.00106450,-0.00033570,0.00094128,0.00014362,-0.00046311,0.00280040
 ,0.00526218,0.00760942,0.01982015,-0.00185195,-0.00343075,0.08812700,-
 0.06814718,-0.00025557,-0.00000022,-0.00000001,0.00000020,0.00000047,-
 0.00000081,0.00000027,-0.00000028,0.00000011,-0.00000017,0.00000091,0.
 00000006,-0.00000028,-0.00000028,0.00000010,0.00000017,0.00000027,-0.0
 0000049,0.00000049,-0.00000005,-0.00000015,0.00000008,0.00000027,-0.00
 000067,0.00000061,0.00000002,-0.00000019,0.00000019,0.00000028,-0.0000
 0077,0.00000068,0.00000003,-0.00000023,0.00000022,0.00000034,-0.000000
 86,0.00000079,0.00000004,-0.00000029,0.00000031,0.00000040,-0.00000098
 ,0.00000095,0.00000002,-0.00000030,0.00000047,0.00000095,-0.00000131,0
 .00000112,-0.00000054,0.00000039,-0.00000017,0.00000157,0.00000020,-0.
 00000085,-0.00000053,0.00000016,0.00000048,0.00000126,-0.00000126,0.00
 000109,-0.00000054,0.00000054,-0.00000024,0.00000198,0.00000018,-0.000
 00103,-0.00000070,0.00000020,0.00000069,0.00000175,-0.00000160,0.00000
 152,-0.00000058,0.00000072,-0.00000042,0.00000217,0.00000061,-0.000001
 58,0.00000086,0.00000136,-0.00000049,0.00000286,0.00000104,-0.00000251
 ,0.00000019,-0.00000073,-0.00000236,0.00000406,0.00000201,-0.00000294,
 0.00000642,0.00001463,0.00000765,0.00000472,0.00000222,-0.00000526,-0.
 00002013,-0.00004483,-0.00003033,0.00000868,0.00002257,-0.00000197,-0.
 00000715,0.00009125,0.00008317,0.00004489,-0.00014212,-0.00023737,-0.0
 0208757,-0.00379276,-0.00332095,-0.00978642,0.00531344,0.00165726,-0.0
 9963468,0.06411228,-0.00000186,0.00000057,-0.00000025,0.00000151,-0.00
 000254,-0.00000017,-0.00000120,0.00000190,0.,0.00000251,0.00000099,-0.
 00000140,-0.00000224,-0.00000041,0.00000054,0.00000098,-0.00000215,0.0
 0000186,-0.00000098,0.00000187,-0.00000170,0.00000082,-0.00000244,0.00
 000222,-0.00000075,0.00000208,-0.00000187,0.00000069,-0.00000266,0.000
 00268,-0.00000057,0.00000221,-0.00000214,0.00000044,-0.00000295,0.0000
 0304,-0.00000030,0.00000239,-0.00000248,0.00000021,-0.00000316,0.00000
 349,0.00000010,0.00000236,-0.00000270,-0.00000008,-0.00000477,0.000005
 00,-0.00000038,0.00000251,-0.00000255,0.00000326,0.00000369,-0.0000056
 3,-0.00000250,-0.00000170,0.00000279,0.00000021,-0.00000560,0.00000640
 ,-0.00000100,0.00000331,-0.00000345,0.00000422,0.00000408,-0.00000798,
 -0.00000336,-0.00000187,0.00000396,0.00000021,-0.00000655,0.00000954,-
 0.00000165,0.00000329,-0.00000424,0.00000265,0.00000337,-0.00000996,-0
 .00000268,-0.00000468,0.00000899,0.00000356,0.00001370,-0.00000964,-0.
 00000213,-0.00001095,0.00001321,-0.00001420,-0.00001163,-0.00004080,-0
 .00000136,-0.00001357,0.00002986,0.00004039,0.00016959,0.00003143,-0.0
 0006926,-0.00006158,0.00006080,-0.00033109,-0.00036104,-0.00070802,-0.
 00093165,0.00003305,0.00075726,0.00162589,0.00691271,0.00040262,-0.021
 32533,0.00743678,0.00647911,0.04392014,-0.00174421,-0.05588788,0.00000
 015,0.00000004,-0.00000005,-0.00000028,0.00000055,-0.00000006,0.000000
 10,-0.00000005,0.00000028,-0.00000068,-0.00000004,0.00000036,0.0000002
 3,-0.00000005,0.00000005,-0.00000017,0.00000036,-0.00000023,0.00000006
 ,0.00000013,0.00000001,-0.00000019,0.00000042,-0.00000042,-0.00000001,
 0.00000008,-0.00000011,-0.00000021,0.00000051,-0.00000051,-0.00000003,
 0.00000012,-0.00000017,-0.00000024,0.00000060,-0.00000057,-0.00000002,
 0.00000017,-0.00000018,-0.00000028,0.00000071,-0.00000065,0.,0.0000002
 0,-0.00000025,-0.00000065,0.00000091,-0.00000064,0.00000040,-0.0000002
 4,0.00000029,-0.00000115,0.,0.00000067,0.00000051,-0.00000004,-0.00000
 017,-0.00000090,0.00000096,-0.00000061,0.00000046,-0.00000027,0.000000
 34,-0.00000152,0.00000010,0.00000091,0.00000077,0.00000007,-0.00000019
 ,-0.00000131,0.00000132,-0.00000082,0.00000056,-0.00000046,0.00000044,
 -0.00000158,-0.00000005,0.00000142,-0.00000005,0.00000016,0.00000106,-
 0.00000221,-0.00000023,0.00000227,-0.00000083,-0.00000145,0.00000037,-
 0.00000315,0.00000015,0.00000344,0.00000368,0.00000849,0.00000770,-0.0
 0000498,-0.00000091,0.00000510,-0.00001159,-0.00003069,-0.00002144,-0.
 00000367,0.00000588,0.00001856,0.00009448,0.00003111,0.00004018,-0.000
 42853,-0.00007180,0.00008835,-0.00134500,-0.00342970,-0.00103364,0.021
 31703,-0.00753769,0.00016534,-0.04252206,-0.00133550,0.04959120,-0.280
 77656,0.11802353,0.00106682,-0.01968135,0.01469139,-0.00103367,-0.0006
 9410,-0.00346778,0.00284521,0.00035677,-0.00024650,0.00021577,-0.00000
 263,0.00002123,-0.00005613,-0.00003312,-0.00001192,0.00003538,0.000039
 36,-0.00000310,-0.00000364,-0.00001742,0.00001173,-0.00000725,0.000015
 20,-0.00002076,0.00001804,-0.00001356,0.00001327,-0.00000867,0.0000113
 1,-0.00001854,0.00001495,-0.00001098,0.00001138,-0.00000759,0.00000969
 ,-0.00001498,0.00001212,-0.00000970,0.00000983,-0.00000623,0.00000904,
 -0.00001242,0.00000947,-0.00001498,-0.00000482,0.00001250,0.00001485,0
 .00000656,-0.00001460,-0.00000549,0.00001179,-0.00001152,0.00000472,-0
 .00001287,0.00001337,-0.00000866,-0.00000345,0.00000958,0.00000949,0.0
 0000549,-0.00001300,-0.00000288,0.00000666,-0.00000816,0.00000201,-0.0
 0000894,0.00001217,-0.00000453,-0.00000268,0.00000698,0.00000657,0.000
 00505,-0.00001204,-0.00000312,-0.00000268,0.00000574,0.00000476,0.0000
 0373,-0.00000815,-0.00000355,-0.00000248,0.00000587,0.00000475,0.00000
 305,-0.00000750,-0.00000385,-0.00000199,0.00000532,0.00000481,0.000002
 50,-0.00000668,-0.00000409,-0.00000153,0.00000481,0.00000490,0.0000020
 3,-0.00000607,-0.00000420,-0.00000129,0.00000449,0.00000494,0.00000164
 ,-0.00000553,-0.00000487,-0.00000082,0.00000420,0.00000563,0.00000080,
 -0.00000476,-0.00000526,0.00000167,0.00000075,0.00276907,-0.00224835,0
 .00046106,0.00086413,-0.00044036,-0.00096674,-0.00122361,0.00040276,-0
 .00015533,0.00013089,0.00001669,-0.00007677,-0.00004556,0.00004822,-0.
 00000573,0.00002891,0.00000429,-0.00005523,-0.00001376,0.00001393,-0.0
 0000610,0.00000178,0.00000216,-0.00000572,-0.00000293,0.00000598,-0.00
 000512,0.00000009,0.00000230,-0.00000249,-0.00000201,0.00000454,-0.000
 00406,-0.00000012,0.00000177,-0.00000186,-0.00000165,0.00000360,-0.000
 00316,0.00000003,0.00000121,-0.00000140,-0.00000154,0.00000255,-0.0000
 0215,0.00000125,0.00000008,-0.00000067,-0.00000339,-0.00000029,0.00000
 203,0.00000073,-0.00000094,0.00000075,-0.00000184,0.00000199,-0.000001
 47,0.00000110,-0.00000003,-0.00000036,-0.00000259,-0.00000015,0.000001
 61,0.00000061,-0.00000074,0.00000042,-0.00000154,0.00000161,-0.0000013
 0,0.00000100,0.00000004,-0.00000040,-0.00000229,-0.00000028,0.00000184
 ,-0.00000034,-0.00000038,0.00000064,-0.00000140,-0.00000052,0.00000163
 ,-0.00000031,-0.00000023,0.00000055,-0.00000122,-0.00000047,0.00000144
 ,-0.00000024,-0.00000020,0.00000042,-0.00000105,-0.00000044,0.00000127
 ,-0.00000018,-0.00000015,0.00000034,-0.00000092,-0.00000037,0.00000113
 ,-0.00000012,-0.00000009,0.00000024,-0.00000081,-0.00000033,0.00000103
 ,-0.00000008,-0.00000004,0.00000016,-0.00000057,-0.00000032,0.00000087
 ,0.00000018,-0.00000008,0.00000005,-0.00000049,0.00000047,-0.00000036,
 0.29830687,0.12242558,-0.11889798,0.00766566,-0.01767977,0.01037546,0.
 00004954,-0.00138976,-0.00092498,0.00324795,0.00009710,-0.00039692,0.0
 0021618,-0.00008973,0.00027865,-0.00007725,0.00014269,-0.00003300,0.00
 001997,-0.00007743,0.00000007,-0.00004994,0.00005495,-0.00000818,-0.00
 001596,-0.00003276,0.00001836,0.00001074,0.00002779,-0.00000346,-0.000
 00749,-0.00002172,0.00000599,0.00000093,0.00001655,-0.00000335,-0.0000
 0430,-0.00001345,0.00000559,0.00000068,0.00001096,-0.00000280,-0.00000
 208,-0.00000931,0.00000399,-0.00000022,0.00000967,0.00000144,-0.000006
 28,-0.00000777,0.00000091,0.00000260,0.00000395,-0.00000605,0.00000509
 ,-0.00000423,0.00000397,-0.00000274,0.00000477,0.00000108,-0.00000404,
 -0.00000429,-0.00000045,0.00000305,0.00000185,-0.00000307,0.00000321,-
 0.00000184,0.00000276,-0.00000306,0.00000233,0.00000080,-0.00000268,-0
 .00000268,-0.00000099,0.00000321,0.00000141,0.00000032,-0.00000128,-0.
 00000187,-0.00000076,0.00000219,0.00000131,0.00000049,-0.00000149,-0.0
 0000163,-0.00000073,0.00000215,0.00000125,0.00000050,-0.00000145,-0.00
 000153,-0.00000065,0.00000197,0.00000133,0.00000038,-0.00000138,-0.000
 00162,-0.00000057,0.00000179,0.00000133,0.00000032,-0.00000134,-0.0000
 0159,-0.00000049,0.00000166,0.00000154,0.00000020,-0.00000127,-0.00000
 177,-0.00000027,0.00000148,0.00000157,-0.00000063,-0.00000030,0.024480
 27,-0.00852235,-0.00027209,-0.00023126,0.00067520,-0.00206890,-0.00089
 188,0.00034024,0.00012579,-0.00000731,0.00017353,-0.00044160,-0.000027
 74,0.00001544,-0.00000816,0.00003230,0.00002563,-0.00001090,-0.0000101
 7,0.00000003,-0.00000012,0.00000010,-0.00000450,-0.00000400,-0.0000003
 6,-0.00000144,0.00000092,0.00000035,-0.00000062,0.00000051,0.00000024,
 -0.00000107,0.00000107,0.00000017,-0.00000061,0.00000047,0.00000031,-0
 .00000092,0.00000088,0.00000010,-0.00000034,0.00000047,0.00000036,-0.0
 0000066,0.00000064,-0.00000024,-0.00000004,0.00000023,0.00000089,0.000
 00019,-0.00000055,-0.00000008,0.00000032,-0.00000023,0.00000044,-0.000
 00051,0.00000044,-0.00000027,0.,0.00000012,0.00000071,0.00000010,-0.00
 000046,-0.00000012,0.00000024,-0.00000011,0.00000042,-0.00000042,0.000
 00038,-0.00000025,-0.00000002,0.00000017,0.00000066,0.00000011,-0.0000
 0055,0.00000012,0.00000012,-0.00000022,0.00000041,0.00000016,-0.000000
 50,0.00000010,0.00000005,-0.00000018,0.00000037,0.00000013,-0.00000046
 ,0.00000006,0.00000003,-0.00000016,0.00000032,0.00000011,-0.00000041,0
 .00000006,0.00000005,-0.00000012,0.00000029,0.00000013,-0.00000032,0.0
 0000005,0.00000006,-0.00000007,0.00000026,0.00000012,-0.00000031,0.000
 00004,0.00000004,-0.00000005,0.00000018,0.00000014,-0.00000026,-0.0000
 0004,0.00000009,0.,0.00000016,-0.00000010,0.00000015,-0.12681321,0.116
 88539,0.00057129,0.00818991,-0.03240520,0.00577181,-0.00223584,0.00391
 064,0.00276772,0.00168773,0.01033506,0.00068700,0.00052759,-0.00091298
 ,0.00005448,-0.00028181,-0.00028862,-0.00001126,-0.00006971,0.00022152
 ,-0.00006158,-0.00000762,-0.00014571,0.00002567,-0.00003891,0.00003367
 ,-0.00001146,0.00005089,-0.00002687,0.00001802,-0.00002647,0.00002258,
 -0.00001306,0.00002717,-0.00002661,0.00001382,-0.00001993,0.00001405,-
 0.00001117,0.00002139,-0.00001819,0.00001271,-0.00001516,0.00001028,-0
 .00001105,0.00001659,-0.00001377,0.00001936,0.00000437,-0.00001457,-0.
 00001870,-0.00000791,0.00001777,0.00000716,-0.00001406,0.00001322,-0.0
 0000607,0.00001554,-0.00001629,0.00001095,0.00000357,-0.00001131,-0.00
 001184,-0.00000638,0.00001545,0.00000381,-0.00000805,0.00000948,-0.000
 00269,0.00001065,-0.00001450,0.00000588,0.00000276,-0.00000811,-0.0000
 0807,-0.00000584,0.00001413,0.00000402,0.00000312,-0.00000701,-0.00000
 592,-0.00000429,0.00000962,0.00000448,0.00000280,-0.00000695,-0.000005
 72,-0.00000348,0.00000876,0.00000462,0.00000229,-0.00000622,-0.0000057
 2,-0.00000286,0.00000776,0.00000468,0.00000183,-0.00000562,-0.00000566
 ,-0.00000239,0.00000696,0.00000481,0.00000143,-0.00000517,-0.00000565,
 -0.00000191,0.00000625,0.00000545,0.00000092,-0.00000479,-0.00000652,-
 0.00000086,0.00000527,0.00000595,-0.00000217,-0.00000078,-0.00630764,0
 .00337017,0.00248822,-0.00094770,-0.00267263,-0.00670755,-0.00053624,0
 .00008491,-0.00015649,0.00015514,-0.00026329,0.00017390,0.00000462,0.0
 0000265,0.00000548,0.00006680,0.00008130,0.00003073,-0.00000333,-0.000
 00753,0.00000797,-0.00000086,-0.00001211,-0.00000786,0.00000421,-0.000
 00755,0.00000679,0.00000067,-0.00000237,0.00000119,0.00000301,-0.00000
 529,0.00000549,0.00000054,-0.00000131,0.00000170,0.00000230,-0.0000042
 1,0.00000411,0.00000017,-0.00000076,0.00000148,0.00000203,-0.00000291,
 0.00000272,-0.00000156,0.00000024,0.00000084,0.00000435,0.00000032,-0.
 00000228,-0.00000092,0.00000127,-0.00000069,0.00000243,-0.00000240,0.0
 0000189,-0.00000134,0.00000015,0.00000049,0.00000322,0.00000018,-0.000
 00183,-0.00000073,0.00000099,-0.00000043,0.00000195,-0.00000191,0.0000
 0162,-0.00000125,0.00000013,0.00000040,0.00000274,0.00000031,-0.000002
 06,0.00000037,0.00000046,-0.00000069,0.00000167,0.00000063,-0.00000190
 ,0.00000034,0.00000024,-0.00000058,0.00000143,0.00000052,-0.00000165,0
 .00000028,0.00000019,-0.00000047,0.00000124,0.00000046,-0.00000146,0.0
 0000023,0.00000016,-0.00000035,0.00000109,0.00000044,-0.00000126,0.000
 00018,0.00000015,-0.00000024,0.00000094,0.00000039,-0.00000109,0.00000
 014,0.00000010,-0.00000016,0.00000073,0.00000040,-0.00000096,-0.000000
 15,0.00000016,-0.00000002,0.00000077,-0.00000055,0.00000044,-0.0022634
 3,-0.00837700,0.02343137\\0.00000240,-0.00000025,-0.00000051,-0.000000
 39,-0.00000120,0.00000005,0.00000299,0.00000012,0.00000058,-0.00000146
 ,0.00000032,0.00000062,-0.00000116,0.00000130,0.00000027,-0.00000014,0
 .00000090,-0.00000115,-0.00000118,-0.00000106,0.00000182,0.00000231,0.
 00000046,-0.00000130,-0.00000223,-0.00000029,0.00000180,0.00000205,0.0
 0000057,-0.00000108,-0.00000185,-0.00000033,0.00000161,0.00000137,0.00
 000065,-0.00000084,-0.00000099,-0.00000039,0.00000123,0.00000093,0.000
 00071,-0.00000028,-0.00000062,-0.00000035,0.00000117,0.00000007,0.0000
 0041,-0.00000080,0.00000063,-0.00000005,0.00000036,0.00000075,0.,-0.00
 000006,-0.00000029,0.00000017,-0.00000067,-0.00000102,0.00000007,0.000
 00065,0.00000081,-0.00000058,0.00000117,-0.00000006,0.00000091,-0.0000
 0047,0.00000073,0.00000069,-0.00000078,-0.00000164,0.00000006,0.000000
 82,0.00000128,-0.00000048,0.00000065,-0.00000134,0.00000070,0.00000012
 ,0.00000160,-0.00000061,0.00000014,-0.00000128,0.00000058,0.00000024,0
 .00000135,-0.00000031,-0.00000008,-0.00000117,0.00000035,0.00000038,0.
 00000113,-0.00000006,-0.00000038,-0.00000112,0.00000017,0.00000055,0.0
 0000099,0.00000014,-0.00000069,-0.00000116,0.,0.00000077,0.00000115,0.
 00000031,-0.00000109,-0.00000114,-0.00000024,0.00000106,0.00000051,0.0
 0000030,-0.00000074,-0.00000029,-0.00000005,0.00000025,-0.00000180,0.0
 0000054,0.00000070,-0.00000101,0.00000049,0.00000049,-0.00000009,-0.00
 000070,-0.00000061,0.00000063,-0.00000101,-0.00000117,0.00000059,-0.00
 000002,0.,0.00000035,-0.00000042,0.00000018,0.,0.00000030,-0.00000073,
 -0.00000023,-0.00000055,0.00000033,0.00000005,0.00000028,-0.00000084,-
 0.00000022,-0.00000053,0.00000020,0.00000001,0.00000026,-0.00000076,-0
 .00000014,-0.00000039,0.00000005,-0.00000002,0.00000017,-0.00000057,-0
 .00000007,-0.00000031,-0.00000002,-0.00000019,-0.00000035,-0.00000104,
 -0.00000018,-0.00000032,-0.00000012,0.00000027,0.00000051,0.00000039,0
 .00000020,0.00000041,0.00000029,-0.00000017,-0.00000033,-0.00000016,-0
 .00000008,-0.00000019,-0.00000033,0.,-0.00000009,-0.00000026,0.0000000
 2,-0.00000019,0.00000010,-0.00000015,-0.00000016,0.00000003,-0.0000000
 6,-0.00000033,-0.00000048,-0.00000005,0.,-0.00000004,0.00000036,-0.000
 00002,-0.00000033,-0.00000036,-0.00000015,0.00000016,0.00000035,-0.000
 00005,-0.00000049,-0.00000039,-0.00000015,0.00000029,0.00000042,0.0000
 0002,-0.00000051,-0.00000042,-0.00000017,0.00000039,0.00000044,0.00000
 003,-0.00000049,-0.00000043,-0.00000017,0.00000043,0.00000040,0.000000
 04,-0.00000043,-0.00000044,-0.00000016,0.00000047,0.00000041,0.0000000
 4,-0.00000040,-0.00000026,-0.00000010,0.00000028,0.00000015,-0.0000000
 4,-0.00000009,0.00000014,-0.00000011,0.00000006,-0.00000054,0.00000022
 ,-0.00000034\\\@


 ALL MEN WHO EXPLORE
 DEPLORE
 THAT FRUSTRATING HURDLE
 THE GIRDLE.

         -- COLIN FLETCHER
 Job cpu time:       0 days  3 hours  4 minutes 18.6 seconds.
 Elapsed time:       0 days  3 hours  4 minutes 18.8 seconds.
 File lengths (MBytes):  RWF=   4242 Int=      0 D2E=      0 Chk=     50 Scr=      1
 Normal termination of Gaussian 16 at Mon Oct 30 00:53:42 2023.
