 Entering Gaussian System, Link 0=g16
 Input=./com/20.com
 Output=./log/20.log
 Initial command:
 /home/shohei/gaussian/g16/l1.exe "/home/shohei/gaussian/scratch/Gau-26565.inp" -scrdir="/home/shohei/gaussian/scratch/"
 Entering Link 1 = /home/shohei/gaussian/g16/l1.exe PID=     26567.
  
 Copyright (c) 1988-2017, Gaussian, Inc.  All Rights Reserved.
  
 This is part of the Gaussian(R) 16 program.  It is based on
 the Gaussian(R) 09 system (copyright 2009, Gaussian, Inc.),
 the Gaussian(R) 03 system (copyright 2003, Gaussian, Inc.),
 the Gaussian(R) 98 system (copyright 1998, Gaussian, Inc.),
 the Gaussian(R) 94 system (copyright 1995, Gaussian, Inc.),
 the Gaussian 92(TM) system (copyright 1992, Gaussian, Inc.),
 the Gaussian 90(TM) system (copyright 1990, Gaussian, Inc.),
 the Gaussian 88(TM) system (copyright 1988, Gaussian, Inc.),
 the Gaussian 86(TM) system (copyright 1986, Carnegie Mellon
 University), and the Gaussian 82(TM) system (copyright 1983,
 Carnegie Mellon University). Gaussian is a federally registered
 trademark of Gaussian, Inc.
  
 This software contains proprietary and confidential information,
 including trade secrets, belonging to Gaussian, Inc.
  
 This software is provided under written license and may be
 used, copied, transmitted, or stored only in accord with that
 written license.
  
 The following legend is applicable only to US Government
 contracts under FAR:
  
                    RESTRICTED RIGHTS LEGEND
  
 Use, reproduction and disclosure by the US Government is
 subject to restrictions as set forth in subparagraphs (a)
 and (c) of the Commercial Computer Software - Restricted
 Rights clause in FAR 52.227-19.
  
 Gaussian, Inc.
 340 Quinnipiac St., Bldg. 40, Wallingford CT 06492
  
  
 ---------------------------------------------------------------
 Warning -- This program may not be used in any manner that
 competes with the business of Gaussian, Inc. or will provide
 assistance to any competitor of Gaussian, Inc.  The licensee
 of this program is prohibited from giving any competitor of
 Gaussian, Inc. access to this program.  By using this program,
 the user acknowledges that Gaussian, Inc. is engaged in the
 business of creating and licensing software in the field of
 computational chemistry and represents and warrants to the
 licensee that it is not a competitor of Gaussian, Inc. and that
 it will not use this program in any manner prohibited above.
 ---------------------------------------------------------------
  

 Cite this work as:
 Gaussian 16, Revision B.01,
 M. J. Frisch, G. W. Trucks, H. B. Schlegel, G. E. Scuseria, 
 M. A. Robb, J. R. Cheeseman, G. Scalmani, V. Barone, 
 G. A. Petersson, H. Nakatsuji, X. Li, M. Caricato, A. V. Marenich, 
 J. Bloino, B. G. Janesko, R. Gomperts, B. Mennucci, H. P. Hratchian, 
 J. V. Ortiz, A. F. Izmaylov, J. L. Sonnenberg, D. Williams-Young, 
 F. Ding, F. Lipparini, F. Egidi, J. Goings, B. Peng, A. Petrone, 
 T. Henderson, D. Ranasinghe, V. G. Zakrzewski, J. Gao, N. Rega, 
 G. Zheng, W. Liang, M. Hada, M. Ehara, K. Toyota, R. Fukuda, 
 J. Hasegawa, M. Ishida, T. Nakajima, Y. Honda, O. Kitao, H. Nakai, 
 T. Vreven, K. Throssell, J. A. Montgomery, Jr., J. E. Peralta, 
 F. Ogliaro, M. J. Bearpark, J. J. Heyd, E. N. Brothers, K. N. Kudin, 
 V. N. Staroverov, T. A. Keith, R. Kobayashi, J. Normand, 
 K. Raghavachari, A. P. Rendell, J. C. Burant, S. S. Iyengar, 
 J. Tomasi, M. Cossi, J. M. Millam, M. Klene, C. Adamo, R. Cammi, 
 J. W. Ochterski, R. L. Martin, K. Morokuma, O. Farkas, 
 J. B. Foresman, and D. J. Fox, Gaussian, Inc., Wallingford CT, 2016.
 
 ******************************************
 Gaussian 16:  EM64L-G16RevB.01 20-Dec-2017
                30-Oct-2023 
 ******************************************
 %chk=./chk/20.chk
 ---------------------------
 # B3LYP/6-31G(d,p) OPT FREQ
 ---------------------------
 1/18=20,19=15,26=3,38=1/1,3;
 2/9=110,12=2,17=6,18=5,40=1/2;
 3/5=1,6=6,7=101,11=2,25=1,30=1,71=1,74=-5/1,2,3;
 4//1;
 5/5=2,38=5/2;
 6/7=2,8=2,9=2,10=2,28=1/1;
 7//1,2,3,16;
 1/18=20,19=15,26=3/3(2);
 2/9=110/2;
 99//99;
 2/9=110/2;
 3/5=1,6=6,7=101,11=2,25=1,30=1,71=1,74=-5/1,2,3;
 4/5=5,16=3,69=1/1;
 5/5=2,38=5/2;
 7//1,2,3,16;
 1/18=20,19=15,26=3/3(-5);
 2/9=110/2;
 6/7=2,8=2,9=2,10=2,19=2,28=1/1;
 99/9=1/99;
 ------
 20poly
 ------
 Symbolic Z-matrix:
 Charge =  0 Multiplicity = 1
 C                    -16.02196   3.48138   1.45222 
 C                    -14.91862   3.82487   0.78345 
 C                    -13.59514   3.28471   1.16054 
 C                    -12.49433   3.6346    0.4721 
 C                    -11.11551   3.15126   0.75243 
 C                    -10.7818   2.30411   1.74907 
 C                    -9.40354   1.8098    2.01759 
 C                    -8.31212   2.13421   1.30203 
 C                    -6.98924   1.56438   1.63821 
 C                    -5.91035   1.86263   0.90214 
 C                    -4.58831   1.27356   1.20206 
 C                    -3.53196   1.54706   0.42522 
 C                    -2.20938   0.93751   0.67816 
 C                    -1.18333   1.18399  -0.14693 
 C                     0.1394    0.55486   0.05173 
 C                     1.12829   0.77656  -0.82458 
 C                     2.45193   0.13169  -0.68545 
 C                     3.3966    0.34096  -1.61903 
 C                     4.75268  -0.26521  -1.63276 
 C                     5.24539  -1.09541  -0.68913 
 C                     6.60076  -1.71731  -0.7322 
 C                     7.48312  -1.55952  -1.74199 
 C                     8.83031  -2.18353  -1.81791 
 C                     9.38276  -2.97557  -0.87451 
 C                     10.73516  -3.59681  -0.97778 
 C                     11.55453  -3.47699  -2.04424 
 C                     12.90279  -4.08954  -2.16322 
 C                     13.51579  -4.82789  -1.2218 
 C                     14.86812  -5.36954  -1.47755 
 C                     15.52618  -6.08602  -0.55672 
 C                     16.88142  -6.60241  -0.84296 
 C                     17.57376  -7.29697   0.06915 
 C                     18.93213  -7.79174  -0.23938 
 C                     19.65122  -8.46623   0.66706 
 C                     21.01195  -8.94438   0.34332 
 C                     21.74936  -9.60326   1.24655 
 C                     23.11156  -10.07074   0.91387 
 C                     23.85926  -10.71987   1.81575 
 C                     25.22156  -11.18196   1.47869 
 C                     25.97401  -11.82523   2.37421 
 H                    -15.97923   2.79546   2.29309 
 H                    -15.00522   4.51336  -0.05299 
 H                    -13.54251   2.60134   1.99915 
 H                    -12.5998   4.3208   -0.36423 
 H                    -10.35677   3.52918   0.08056 
 H                    -11.54155   1.92746   2.42086 
 H                    -9.29298   1.126     2.85501 
 H                    -8.37449   2.80684   0.45576 
 H                    -6.89757   0.88348   2.48121 
 H                    -6.00808   2.53669   0.05398 
 H                    -4.48087   0.59756   2.04703 
 H                    -3.6506    2.21507  -0.42515 
 H                    -2.07823   0.26826   1.5251 
 H                    -1.32865   1.84488  -0.99878 
 H                     0.29979  -0.10713   0.89927 
 H                     0.94997   1.43119  -1.67506 
 H                     2.62842  -0.51891   0.16291 
 H                     3.16364   0.99384  -2.45641 
 H                     5.35005   0.00548  -2.49166 
 H                     4.64166  -1.35555   0.17105 
 H                     6.85157  -2.3417    0.11541 
 H                     7.23182  -0.94665  -2.59586 
 H                     9.37307  -1.95339  -2.72372 
 H                     8.83937  -3.19665   0.03501 
 H                     11.04441  -4.18172  -0.121 
 H                     11.25068  -2.903    -2.90789 
 H                     13.42276  -3.90709  -3.10035 
 H                     13.04419  -5.03389  -0.26815 
 H                     15.34019  -5.17287  -2.4379 
 H                     15.06767  -6.28423   0.40923 
 H                     17.32558  -6.4049   -1.81629 
 H                     17.13972  -7.49386   1.04666 
 H                     19.35496  -7.59603  -1.22246 
 H                     19.23584  -8.6607    1.65318 
 H                     21.4197  -8.75129  -0.64657 
 H                     21.34632  -9.7951    2.23833 
 H                     23.51047  -9.88017  -0.08007 
 H                     23.46344  -10.90998   2.81081 
 H                     25.62614  -10.99836   0.48682 
 H                     25.60625  -12.02724   3.37587 
 H                     26.97234  -12.15555   2.10586 
 H                    -16.98345   3.88911   1.15719 
 

 GradGradGradGradGradGradGradGradGradGradGradGradGradGradGradGradGradGrad
 Berny optimization.
 Initialization pass.
                           ----------------------------
                           !    Initial Parameters    !
                           ! (Angstroms and Degrees)  !
 --------------------------                            --------------------------
 ! Name  Definition              Value          Derivative Info.                !
 --------------------------------------------------------------------------------
 ! R1    R(1,2)                  1.3351         estimate D2E/DX2                !
 ! R2    R(1,41)                 1.086          estimate D2E/DX2                !
 ! R3    R(1,82)                 1.0852         estimate D2E/DX2                !
 ! R4    R(2,3)                  1.4784         estimate D2E/DX2                !
 ! R5    R(2,42)                 1.0868         estimate D2E/DX2                !
 ! R6    R(3,4)                  1.3447         estimate D2E/DX2                !
 ! R7    R(3,43)                 1.0831         estimate D2E/DX2                !
 ! R8    R(4,5)                  1.4877         estimate D2E/DX2                !
 ! R9    R(4,44)                 1.0869         estimate D2E/DX2                !
 ! R10   R(5,6)                  1.3499         estimate D2E/DX2                !
 ! R11   R(5,45)                 1.0816         estimate D2E/DX2                !
 ! R12   R(6,7)                  1.4886         estimate D2E/DX2                !
 ! R13   R(6,46)                 1.0818         estimate D2E/DX2                !
 ! R14   R(7,8)                  1.3448         estimate D2E/DX2                !
 ! R15   R(7,47)                 1.0868         estimate D2E/DX2                !
 ! R16   R(8,9)                  1.4791         estimate D2E/DX2                !
 ! R17   R(8,48)                 1.0828         estimate D2E/DX2                !
 ! R18   R(9,10)                 1.3397         estimate D2E/DX2                !
 ! R19   R(9,49)                 1.0875         estimate D2E/DX2                !
 ! R20   R(10,11)                1.4781         estimate D2E/DX2                !
 ! R21   R(10,50)                1.0878         estimate D2E/DX2                !
 ! R22   R(11,12)                1.3395         estimate D2E/DX2                !
 ! R23   R(11,51)                1.0874         estimate D2E/DX2                !
 ! R24   R(12,13)                1.4781         estimate D2E/DX2                !
 ! R25   R(12,52)                1.0879         estimate D2E/DX2                !
 ! R26   R(13,14)                1.3395         estimate D2E/DX2                !
 ! R27   R(13,53)                1.0874         estimate D2E/DX2                !
 ! R28   R(14,15)                1.4781         estimate D2E/DX2                !
 ! R29   R(14,54)                1.0879         estimate D2E/DX2                !
 ! R30   R(15,16)                1.3398         estimate D2E/DX2                !
 ! R31   R(15,55)                1.0873         estimate D2E/DX2                !
 ! R32   R(16,17)                1.4789         estimate D2E/DX2                !
 ! R33   R(16,56)                1.088          estimate D2E/DX2                !
 ! R34   R(17,18)                1.3445         estimate D2E/DX2                !
 ! R35   R(17,57)                1.0836         estimate D2E/DX2                !
 ! R36   R(18,19)                1.4855         estimate D2E/DX2                !
 ! R37   R(18,58)                1.0871         estimate D2E/DX2                !
 ! R38   R(19,20)                1.35           estimate D2E/DX2                !
 ! R39   R(19,59)                1.0807         estimate D2E/DX2                !
 ! R40   R(20,21)                1.4919         estimate D2E/DX2                !
 ! R41   R(20,60)                1.0826         estimate D2E/DX2                !
 ! R42   R(21,22)                1.3502         estimate D2E/DX2                !
 ! R43   R(21,61)                1.0822         estimate D2E/DX2                !
 ! R44   R(22,23)                1.4866         estimate D2E/DX2                !
 ! R45   R(22,62)                1.0807         estimate D2E/DX2                !
 ! R46   R(23,24)                1.35           estimate D2E/DX2                !
 ! R47   R(23,63)                1.0808         estimate D2E/DX2                !
 ! R48   R(24,25)                1.4918         estimate D2E/DX2                !
 ! R49   R(24,64)                1.0823         estimate D2E/DX2                !
 ! R50   R(25,26)                1.3502         estimate D2E/DX2                !
 ! R51   R(25,65)                1.0825         estimate D2E/DX2                !
 ! R52   R(26,27)                1.4857         estimate D2E/DX2                !
 ! R53   R(26,66)                1.0806         estimate D2E/DX2                !
 ! R54   R(27,28)                1.3443         estimate D2E/DX2                !
 ! R55   R(27,67)                1.0871         estimate D2E/DX2                !
 ! R56   R(28,29)                1.4791         estimate D2E/DX2                !
 ! R57   R(28,68)                1.0836         estimate D2E/DX2                !
 ! R58   R(29,30)                1.3395         estimate D2E/DX2                !
 ! R59   R(29,69)                1.088          estimate D2E/DX2                !
 ! R60   R(30,31)                1.4783         estimate D2E/DX2                !
 ! R61   R(30,70)                1.0875         estimate D2E/DX2                !
 ! R62   R(31,32)                1.3393         estimate D2E/DX2                !
 ! R63   R(31,71)                1.088          estimate D2E/DX2                !
 ! R64   R(32,33)                1.4782         estimate D2E/DX2                !
 ! R65   R(32,72)                1.0875         estimate D2E/DX2                !
 ! R66   R(33,34)                1.3393         estimate D2E/DX2                !
 ! R67   R(33,73)                1.0879         estimate D2E/DX2                !
 ! R68   R(34,35)                1.4782         estimate D2E/DX2                !
 ! R69   R(34,74)                1.0876         estimate D2E/DX2                !
 ! R70   R(35,36)                1.3393         estimate D2E/DX2                !
 ! R71   R(35,75)                1.0878         estimate D2E/DX2                !
 ! R72   R(36,37)                1.4781         estimate D2E/DX2                !
 ! R73   R(36,76)                1.0876         estimate D2E/DX2                !
 ! R74   R(37,38)                1.3393         estimate D2E/DX2                !
 ! R75   R(37,77)                1.0878         estimate D2E/DX2                !
 ! R76   R(38,39)                1.4775         estimate D2E/DX2                !
 ! R77   R(38,78)                1.0876         estimate D2E/DX2                !
 ! R78   R(39,40)                1.3349         estimate D2E/DX2                !
 ! R79   R(39,79)                1.0868         estimate D2E/DX2                !
 ! R80   R(40,80)                1.086          estimate D2E/DX2                !
 ! R81   R(40,81)                1.0853         estimate D2E/DX2                !
 ! A1    A(2,1,41)             121.1857         estimate D2E/DX2                !
 ! A2    A(2,1,82)             119.955          estimate D2E/DX2                !
 ! A3    A(41,1,82)            118.8594         estimate D2E/DX2                !
 ! A4    A(1,2,3)              121.2009         estimate D2E/DX2                !
 ! A5    A(1,2,42)             118.8577         estimate D2E/DX2                !
 ! A6    A(3,2,42)             119.9413         estimate D2E/DX2                !
 ! A7    A(2,3,4)              120.4783         estimate D2E/DX2                !
 ! A8    A(2,3,43)             118.1344         estimate D2E/DX2                !
 ! A9    A(4,3,43)             121.3869         estimate D2E/DX2                !
 ! A10   A(3,4,5)              125.2895         estimate D2E/DX2                !
 ! A11   A(3,4,44)             118.6042         estimate D2E/DX2                !
 ! A12   A(5,4,44)             116.1053         estimate D2E/DX2                !
 ! A13   A(4,5,6)              124.897          estimate D2E/DX2                !
 ! A14   A(4,5,45)             114.807          estimate D2E/DX2                !
 ! A15   A(6,5,45)             120.2955         estimate D2E/DX2                !
 ! A16   A(5,6,7)              124.7803         estimate D2E/DX2                !
 ! A17   A(5,6,46)             120.2207         estimate D2E/DX2                !
 ! A18   A(7,6,46)             114.9977         estimate D2E/DX2                !
 ! A19   A(6,7,8)              125.1226         estimate D2E/DX2                !
 ! A20   A(6,7,47)             116.2385         estimate D2E/DX2                !
 ! A21   A(8,7,47)             118.6355         estimate D2E/DX2                !
 ! A22   A(7,8,9)              120.7967         estimate D2E/DX2                !
 ! A23   A(7,8,48)             121.2625         estimate D2E/DX2                !
 ! A24   A(9,8,48)             117.9351         estimate D2E/DX2                !
 ! A25   A(8,9,10)             120.6387         estimate D2E/DX2                !
 ! A26   A(8,9,49)             119.5245         estimate D2E/DX2                !
 ! A27   A(10,9,49)            119.8284         estimate D2E/DX2                !
 ! A28   A(9,10,11)            121.3388         estimate D2E/DX2                !
 ! A29   A(9,10,50)            119.6038         estimate D2E/DX2                !
 ! A30   A(11,10,50)           119.047          estimate D2E/DX2                !
 ! A31   A(10,11,12)           120.419          estimate D2E/DX2                !
 ! A32   A(10,11,51)           119.5897         estimate D2E/DX2                !
 ! A33   A(12,11,51)           119.9784         estimate D2E/DX2                !
 ! A34   A(11,12,13)           121.4806         estimate D2E/DX2                !
 ! A35   A(11,12,52)           119.5197         estimate D2E/DX2                !
 ! A36   A(13,12,52)           118.9857         estimate D2E/DX2                !
 ! A37   A(12,13,14)           120.2718         estimate D2E/DX2                !
 ! A38   A(12,13,53)           119.6708         estimate D2E/DX2                !
 ! A39   A(14,13,53)           120.0418         estimate D2E/DX2                !
 ! A40   A(13,14,15)           121.6245         estimate D2E/DX2                !
 ! A41   A(13,14,54)           119.457          estimate D2E/DX2                !
 ! A42   A(15,14,54)           118.9033         estimate D2E/DX2                !
 ! A43   A(14,15,16)           120.1439         estimate D2E/DX2                !
 ! A44   A(14,15,55)           119.7285         estimate D2E/DX2                !
 ! A45   A(16,15,55)           120.1123         estimate D2E/DX2                !
 ! A46   A(15,16,17)           121.7978         estimate D2E/DX2                !
 ! A47   A(15,16,56)           119.3335         estimate D2E/DX2                !
 ! A48   A(17,16,56)           118.8552         estimate D2E/DX2                !
 ! A49   A(16,17,18)           119.712          estimate D2E/DX2                !
 ! A50   A(16,17,57)           118.7664         estimate D2E/DX2                !
 ! A51   A(18,17,57)           121.509          estimate D2E/DX2                !
 ! A52   A(17,18,19)           125.7543         estimate D2E/DX2                !
 ! A53   A(17,18,58)           118.5402         estimate D2E/DX2                !
 ! A54   A(19,18,58)           115.6961         estimate D2E/DX2                !
 ! A55   A(18,19,20)           125.2877         estimate D2E/DX2                !
 ! A56   A(18,19,59)           114.1901         estimate D2E/DX2                !
 ! A57   A(20,19,59)           120.5204         estimate D2E/DX2                !
 ! A58   A(19,20,21)           124.5946         estimate D2E/DX2                !
 ! A59   A(19,20,60)           119.9748         estimate D2E/DX2                !
 ! A60   A(21,20,60)           115.4297         estimate D2E/DX2                !
 ! A61   A(20,21,22)           124.5117         estimate D2E/DX2                !
 ! A62   A(20,21,61)           115.3693         estimate D2E/DX2                !
 ! A63   A(22,21,61)           120.113          estimate D2E/DX2                !
 ! A64   A(21,22,23)           125.5441         estimate D2E/DX2                !
 ! A65   A(21,22,62)           120.3456         estimate D2E/DX2                !
 ! A66   A(23,22,62)           114.1063         estimate D2E/DX2                !
 ! A67   A(22,23,24)           125.5501         estimate D2E/DX2                !
 ! A68   A(22,23,63)           114.1116         estimate D2E/DX2                !
 ! A69   A(24,23,63)           120.3383         estimate D2E/DX2                !
 ! A70   A(23,24,25)           124.5351         estimate D2E/DX2                !
 ! A71   A(23,24,64)           120.1081         estimate D2E/DX2                !
 ! A72   A(25,24,64)           115.3567         estimate D2E/DX2                !
 ! A73   A(24,25,26)           124.6006         estimate D2E/DX2                !
 ! A74   A(24,25,65)           115.4168         estimate D2E/DX2                !
 ! A75   A(26,25,65)           119.9816         estimate D2E/DX2                !
 ! A76   A(25,26,27)           125.2679         estimate D2E/DX2                !
 ! A77   A(25,26,66)           120.5153         estimate D2E/DX2                !
 ! A78   A(27,26,66)           114.2165         estimate D2E/DX2                !
 ! A79   A(26,27,28)           125.7455         estimate D2E/DX2                !
 ! A80   A(26,27,67)           115.7154         estimate D2E/DX2                !
 ! A81   A(28,27,67)           118.5383         estimate D2E/DX2                !
 ! A82   A(27,28,29)           119.7996         estimate D2E/DX2                !
 ! A83   A(27,28,68)           121.4835         estimate D2E/DX2                !
 ! A84   A(29,28,68)           118.7156         estimate D2E/DX2                !
 ! A85   A(28,29,30)           121.7479         estimate D2E/DX2                !
 ! A86   A(28,29,69)           118.8905         estimate D2E/DX2                !
 ! A87   A(30,29,69)           119.3604         estimate D2E/DX2                !
 ! A88   A(29,30,31)           120.2721         estimate D2E/DX2                !
 ! A89   A(29,30,70)           120.0647         estimate D2E/DX2                !
 ! A90   A(31,30,70)           119.6617         estimate D2E/DX2                !
 ! A91   A(30,31,32)           121.5477         estimate D2E/DX2                !
 ! A92   A(30,31,71)           118.9529         estimate D2E/DX2                !
 ! A93   A(32,31,71)           119.4979         estimate D2E/DX2                !
 ! A94   A(31,32,33)           120.4289         estimate D2E/DX2                !
 ! A95   A(31,32,72)           119.9822         estimate D2E/DX2                !
 ! A96   A(33,32,72)           119.5874         estimate D2E/DX2                !
 ! A97   A(32,33,34)           121.3788         estimate D2E/DX2                !
 ! A98   A(32,33,73)           119.0479         estimate D2E/DX2                !
 ! A99   A(34,33,73)           119.5721         estimate D2E/DX2                !
 ! A100  A(33,34,35)           120.5928         estimate D2E/DX2                !
 ! A101  A(33,34,74)           119.9122         estimate D2E/DX2                !
 ! A102  A(35,34,74)           119.494          estimate D2E/DX2                !
 ! A103  A(34,35,36)           121.2164         estimate D2E/DX2                !
 ! A104  A(34,35,75)           119.1383         estimate D2E/DX2                !
 ! A105  A(36,35,75)           119.6447         estimate D2E/DX2                !
 ! A106  A(35,36,37)           120.7449         estimate D2E/DX2                !
 ! A107  A(35,36,76)           119.8502         estimate D2E/DX2                !
 ! A108  A(37,36,76)           119.4045         estimate D2E/DX2                !
 ! A109  A(36,37,38)           121.0781         estimate D2E/DX2                !
 ! A110  A(36,37,77)           119.2214         estimate D2E/DX2                !
 ! A111  A(38,37,77)           119.7004         estimate D2E/DX2                !
 ! A112  A(37,38,39)           120.8436         estimate D2E/DX2                !
 ! A113  A(37,38,78)           119.8425         estimate D2E/DX2                !
 ! A114  A(39,38,78)           119.3138         estimate D2E/DX2                !
 ! A115  A(38,39,40)           121.1579         estimate D2E/DX2                !
 ! A116  A(38,39,79)           119.9071         estimate D2E/DX2                !
 ! A117  A(40,39,79)           118.935          estimate D2E/DX2                !
 ! A118  A(39,40,80)           121.1662         estimate D2E/DX2                !
 ! A119  A(39,40,81)           119.9548         estimate D2E/DX2                !
 ! A120  A(80,40,81)           118.879          estimate D2E/DX2                !
 ! D1    D(41,1,2,3)             0.0303         estimate D2E/DX2                !
 ! D2    D(41,1,2,42)          179.9229         estimate D2E/DX2                !
 ! D3    D(82,1,2,3)          -179.9191         estimate D2E/DX2                !
 ! D4    D(82,1,2,42)           -0.0265         estimate D2E/DX2                !
 ! D5    D(1,2,3,4)            179.6214         estimate D2E/DX2                !
 ! D6    D(1,2,3,43)            -0.1447         estimate D2E/DX2                !
 ! D7    D(42,2,3,4)            -0.27           estimate D2E/DX2                !
 ! D8    D(42,2,3,43)          179.9639         estimate D2E/DX2                !
 ! D9    D(2,3,4,5)           -179.6228         estimate D2E/DX2                !
 ! D10   D(2,3,4,44)             0.0058         estimate D2E/DX2                !
 ! D11   D(43,3,4,5)             0.1355         estimate D2E/DX2                !
 ! D12   D(43,3,4,44)          179.7642         estimate D2E/DX2                !
 ! D13   D(3,4,5,6)             -0.7555         estimate D2E/DX2                !
 ! D14   D(3,4,5,45)           178.9916         estimate D2E/DX2                !
 ! D15   D(44,4,5,6)           179.6076         estimate D2E/DX2                !
 ! D16   D(44,4,5,45)           -0.6453         estimate D2E/DX2                !
 ! D17   D(4,5,6,7)            179.2582         estimate D2E/DX2                !
 ! D18   D(4,5,6,46)            -0.314          estimate D2E/DX2                !
 ! D19   D(45,5,6,7)            -0.476          estimate D2E/DX2                !
 ! D20   D(45,5,6,46)          179.9519         estimate D2E/DX2                !
 ! D21   D(5,6,7,8)             -0.3622         estimate D2E/DX2                !
 ! D22   D(5,6,7,47)          -179.6774         estimate D2E/DX2                !
 ! D23   D(46,6,7,8)           179.2299         estimate D2E/DX2                !
 ! D24   D(46,6,7,47)           -0.0853         estimate D2E/DX2                !
 ! D25   D(6,7,8,9)           -178.7709         estimate D2E/DX2                !
 ! D26   D(6,7,8,48)             0.3364         estimate D2E/DX2                !
 ! D27   D(47,7,8,9)             0.5293         estimate D2E/DX2                !
 ! D28   D(47,7,8,48)          179.6366         estimate D2E/DX2                !
 ! D29   D(7,8,9,10)           178.2638         estimate D2E/DX2                !
 ! D30   D(7,8,9,49)            -0.6765         estimate D2E/DX2                !
 ! D31   D(48,8,9,10)           -0.8725         estimate D2E/DX2                !
 ! D32   D(48,8,9,49)         -179.8128         estimate D2E/DX2                !
 ! D33   D(8,9,10,11)         -178.3344         estimate D2E/DX2                !
 ! D34   D(8,9,10,50)            0.4817         estimate D2E/DX2                !
 ! D35   D(49,9,10,11)           0.6027         estimate D2E/DX2                !
 ! D36   D(49,9,10,50)         179.4187         estimate D2E/DX2                !
 ! D37   D(9,10,11,12)         177.5988         estimate D2E/DX2                !
 ! D38   D(9,10,11,51)          -1.0954         estimate D2E/DX2                !
 ! D39   D(50,10,11,12)         -1.2237         estimate D2E/DX2                !
 ! D40   D(50,10,11,51)       -179.9179         estimate D2E/DX2                !
 ! D41   D(10,11,12,13)       -178.0413         estimate D2E/DX2                !
 ! D42   D(10,11,12,52)          0.5857         estimate D2E/DX2                !
 ! D43   D(51,11,12,13)          0.6478         estimate D2E/DX2                !
 ! D44   D(51,11,12,52)        179.2748         estimate D2E/DX2                !
 ! D45   D(11,12,13,14)        177.1906         estimate D2E/DX2                !
 ! D46   D(11,12,13,53)         -1.3761         estimate D2E/DX2                !
 ! D47   D(52,12,13,14)         -1.4436         estimate D2E/DX2                !
 ! D48   D(52,12,13,53)        179.9897         estimate D2E/DX2                !
 ! D49   D(12,13,14,15)       -177.9226         estimate D2E/DX2                !
 ! D50   D(12,13,14,54)          0.6444         estimate D2E/DX2                !
 ! D51   D(53,13,14,15)          0.6388         estimate D2E/DX2                !
 ! D52   D(53,13,14,54)        179.2057         estimate D2E/DX2                !
 ! D53   D(13,14,15,16)        177.0851         estimate D2E/DX2                !
 ! D54   D(13,14,15,55)         -1.4907         estimate D2E/DX2                !
 ! D55   D(54,14,15,16)         -1.4896         estimate D2E/DX2                !
 ! D56   D(54,14,15,55)        179.9346         estimate D2E/DX2                !
 ! D57   D(14,15,16,17)       -177.9936         estimate D2E/DX2                !
 ! D58   D(14,15,16,56)          0.65           estimate D2E/DX2                !
 ! D59   D(55,15,16,17)          0.5766         estimate D2E/DX2                !
 ! D60   D(55,15,16,56)        179.2202         estimate D2E/DX2                !
 ! D61   D(15,16,17,18)        177.2868         estimate D2E/DX2                !
 ! D62   D(15,16,17,57)         -1.4357         estimate D2E/DX2                !
 ! D63   D(56,16,17,18)         -1.3631         estimate D2E/DX2                !
 ! D64   D(56,16,17,57)        179.9145         estimate D2E/DX2                !
 ! D65   D(16,17,18,19)       -178.2391         estimate D2E/DX2                !
 ! D66   D(16,17,18,58)          0.5926         estimate D2E/DX2                !
 ! D67   D(57,17,18,19)          0.4473         estimate D2E/DX2                !
 ! D68   D(57,17,18,58)        179.279          estimate D2E/DX2                !
 ! D69   D(17,18,19,20)         -1.5434         estimate D2E/DX2                !
 ! D70   D(17,18,19,59)        177.9699         estimate D2E/DX2                !
 ! D71   D(58,18,19,20)        179.5956         estimate D2E/DX2                !
 ! D72   D(58,18,19,59)         -0.8911         estimate D2E/DX2                !
 ! D73   D(18,19,20,21)        178.7199         estimate D2E/DX2                !
 ! D74   D(18,19,20,60)         -0.92           estimate D2E/DX2                !
 ! D75   D(59,19,20,21)         -0.7648         estimate D2E/DX2                !
 ! D76   D(59,19,20,60)        179.5954         estimate D2E/DX2                !
 ! D77   D(19,20,21,22)         -2.2469         estimate D2E/DX2                !
 ! D78   D(19,20,21,61)        178.644          estimate D2E/DX2                !
 ! D79   D(60,20,21,22)        177.4076         estimate D2E/DX2                !
 ! D80   D(60,20,21,61)         -1.7015         estimate D2E/DX2                !
 ! D81   D(20,21,22,23)       -179.0566         estimate D2E/DX2                !
 ! D82   D(20,21,22,62)          0.179          estimate D2E/DX2                !
 ! D83   D(61,21,22,23)          0.0127         estimate D2E/DX2                !
 ! D84   D(61,21,22,62)        179.2484         estimate D2E/DX2                !
 ! D85   D(21,22,23,24)         -1.6067         estimate D2E/DX2                !
 ! D86   D(21,22,23,63)        178.3951         estimate D2E/DX2                !
 ! D87   D(62,22,23,24)        179.1159         estimate D2E/DX2                !
 ! D88   D(62,22,23,63)         -0.8822         estimate D2E/DX2                !
 ! D89   D(22,23,24,25)        179.6359         estimate D2E/DX2                !
 ! D90   D(22,23,24,64)         -0.5284         estimate D2E/DX2                !
 ! D91   D(63,23,24,25)         -0.3661         estimate D2E/DX2                !
 ! D92   D(63,23,24,64)        179.4696         estimate D2E/DX2                !
 ! D93   D(23,24,25,26)         -2.1555         estimate D2E/DX2                !
 ! D94   D(23,24,25,65)        178.2126         estimate D2E/DX2                !
 ! D95   D(64,24,25,26)        178.0018         estimate D2E/DX2                !
 ! D96   D(64,24,25,65)         -1.6301         estimate D2E/DX2                !
 ! D97   D(24,25,26,27)       -179.9565         estimate D2E/DX2                !
 ! D98   D(24,25,26,66)         -0.1993         estimate D2E/DX2                !
 ! D99   D(65,25,26,27)         -0.3403         estimate D2E/DX2                !
 ! D100  D(65,25,26,66)        179.4169         estimate D2E/DX2                !
 ! D101  D(25,26,27,28)         -1.4146         estimate D2E/DX2                !
 ! D102  D(25,26,27,67)        178.9242         estimate D2E/DX2                !
 ! D103  D(66,26,27,28)        178.8148         estimate D2E/DX2                !
 ! D104  D(66,26,27,67)         -0.8464         estimate D2E/DX2                !
 ! D105  D(26,27,28,29)       -179.6397         estimate D2E/DX2                !
 ! D106  D(26,27,28,68)         -0.0526         estimate D2E/DX2                !
 ! D107  D(67,27,28,29)          0.0128         estimate D2E/DX2                !
 ! D108  D(67,27,28,68)        179.6            estimate D2E/DX2                !
 ! D109  D(27,28,29,30)        178.5704         estimate D2E/DX2                !
 ! D110  D(27,28,29,69)         -1.0102         estimate D2E/DX2                !
 ! D111  D(68,28,29,30)         -1.0281         estimate D2E/DX2                !
 ! D112  D(68,28,29,69)        179.3912         estimate D2E/DX2                !
 ! D113  D(28,29,30,31)       -179.4936         estimate D2E/DX2                !
 ! D114  D(28,29,30,70)          0.0452         estimate D2E/DX2                !
 ! D115  D(69,29,30,31)          0.0852         estimate D2E/DX2                !
 ! D116  D(69,29,30,70)        179.624          estimate D2E/DX2                !
 ! D117  D(29,30,31,32)        178.5526         estimate D2E/DX2                !
 ! D118  D(29,30,31,71)         -0.9993         estimate D2E/DX2                !
 ! D119  D(70,30,31,32)         -0.9881         estimate D2E/DX2                !
 ! D120  D(70,30,31,71)        179.4601         estimate D2E/DX2                !
 ! D121  D(30,31,32,33)       -179.4644         estimate D2E/DX2                !
 ! D122  D(30,31,32,72)          0.0886         estimate D2E/DX2                !
 ! D123  D(71,31,32,33)          0.0851         estimate D2E/DX2                !
 ! D124  D(71,31,32,72)        179.638          estimate D2E/DX2                !
 ! D125  D(31,32,33,34)        178.7214         estimate D2E/DX2                !
 ! D126  D(31,32,33,73)         -0.8843         estimate D2E/DX2                !
 ! D127  D(72,32,33,34)         -0.8333         estimate D2E/DX2                !
 ! D128  D(72,32,33,73)        179.561          estimate D2E/DX2                !
 ! D129  D(32,33,34,35)       -179.5426         estimate D2E/DX2                !
 ! D130  D(32,33,34,74)          0.0958         estimate D2E/DX2                !
 ! D131  D(73,33,34,35)          0.0611         estimate D2E/DX2                !
 ! D132  D(73,33,34,74)        179.6994         estimate D2E/DX2                !
 ! D133  D(33,34,35,36)        179.0314         estimate D2E/DX2                !
 ! D134  D(33,34,35,75)         -0.6831         estimate D2E/DX2                !
 ! D135  D(74,34,35,36)         -0.6084         estimate D2E/DX2                !
 ! D136  D(74,34,35,75)        179.677          estimate D2E/DX2                !
 ! D137  D(34,35,36,37)       -179.6873         estimate D2E/DX2                !
 ! D138  D(34,35,36,76)          0.0758         estimate D2E/DX2                !
 ! D139  D(75,35,36,37)          0.0258         estimate D2E/DX2                !
 ! D140  D(75,35,36,76)        179.7889         estimate D2E/DX2                !
 ! D141  D(35,36,37,38)        179.4058         estimate D2E/DX2                !
 ! D142  D(35,36,37,77)         -0.4377         estimate D2E/DX2                !
 ! D143  D(76,36,37,38)         -0.3584         estimate D2E/DX2                !
 ! D144  D(76,36,37,77)        179.7981         estimate D2E/DX2                !
 ! D145  D(36,37,38,39)       -179.8481         estimate D2E/DX2                !
 ! D146  D(36,37,38,78)          0.0409         estimate D2E/DX2                !
 ! D147  D(77,37,38,39)         -0.0053         estimate D2E/DX2                !
 ! D148  D(77,37,38,78)        179.8837         estimate D2E/DX2                !
 ! D149  D(37,38,39,40)        179.7559         estimate D2E/DX2                !
 ! D150  D(37,38,39,79)         -0.1955         estimate D2E/DX2                !
 ! D151  D(78,38,39,40)         -0.1336         estimate D2E/DX2                !
 ! D152  D(78,38,39,79)        179.9149         estimate D2E/DX2                !
 ! D153  D(38,39,40,80)          0.0033         estimate D2E/DX2                !
 ! D154  D(38,39,40,81)       -179.9657         estimate D2E/DX2                !
 ! D155  D(79,39,40,80)        179.9553         estimate D2E/DX2                !
 ! D156  D(79,39,40,81)         -0.0138         estimate D2E/DX2                !
 --------------------------------------------------------------------------------
 Trust Radius=3.00D-01 FncErr=1.00D-07 GrdErr=1.00D-06 EigMax=2.50D+02 EigMin=1.00D-04
 Number of steps in this run=    367 maximum allowed number of steps=    492.
 GradGradGradGradGradGradGradGradGradGradGradGradGradGradGradGradGradGrad

 Stoichiometry    C40H42
 Framework group  C1[X(C40H42)]
 Deg. of freedom   240
 Full point group                 C1      NOp   1
 Largest Abelian subgroup         C1      NOp   1
 Largest concise Abelian subgroup C1      NOp   1
                         Standard orientation:                         
 ---------------------------------------------------------------------
 Center     Atomic      Atomic             Coordinates (Angstroms)
 Number     Number       Type             X           Y           Z
 ---------------------------------------------------------------------
      1          6           0      -22.277482    2.004368    0.911176
      2          6           0      -21.351133    1.052234    0.777255
      3          6           0      -19.929134    1.392511    0.558872
      4          6           0      -19.007044    0.421846    0.433475
      5          6           0      -17.551259    0.641746    0.219736
      6          6           0      -16.960989    1.850652    0.108247
      7          6           0      -15.501711    2.068079   -0.089942
      8          6           0      -14.579097    1.093583   -0.177158
      9          6           0      -13.146636    1.420031   -0.348074
     10          6           0      -12.226310    0.447878   -0.399912
     11          6           0      -10.787315    0.757907   -0.533777
     12          6           0       -9.878806   -0.226358   -0.535644
     13          6           0       -8.431367    0.059417   -0.625148
     14          6           0       -7.541036   -0.939783   -0.568519
     15          6           0       -6.085716   -0.684389   -0.609602
     16          6           0       -5.220706   -1.700739   -0.492286
     17          6           0       -3.758034   -1.482235   -0.484614
     18          6           0       -2.929164   -2.526348   -0.309728
     19          6           0       -1.446898   -2.456088   -0.242430
     20          6           0       -0.712561   -1.331350   -0.377126
     21          6           0        0.775024   -1.274270   -0.279717
     22          6           0        1.564704   -2.333723   -0.002028
     23          6           0        3.045909   -2.299127    0.119965
     24          6           0        3.822983   -1.209763   -0.058872
     25          6           0        5.308584   -1.199088    0.076967
     26          6           0        6.053406   -2.266672    0.435535
     27          6           0        7.532378   -2.272508    0.576181
     28          6           0        8.347562   -1.229319    0.342880
     29          6           0        9.808057   -1.384293    0.517639
     30          6           0       10.658230   -0.379458    0.268951
     31          6           0       12.113192   -0.573750    0.443929
     32          6           0       12.988024    0.404111    0.175337
     33          6           0       14.438785    0.178998    0.347905
     34          6           0       15.331807    1.134924    0.060915
     35          6           0       16.779260    0.887598    0.230441
     36          6           0       17.684088    1.827916   -0.070929
     37          6           0       19.129368    1.566988    0.096136
     38          6           0       20.040465    2.498295   -0.214301
     39          6           0       21.484037    2.230738   -0.048402
     40          6           0       22.397661    3.152632   -0.360378
     41          1           0      -22.013359    3.056654    0.863086
     42          1           0      -21.657342    0.010945    0.832967
     43          1           0      -19.656587    2.439464    0.507599
     44          1           0      -19.330156   -0.614073    0.496044
     45          1           0      -16.959872   -0.261866    0.159302
     46          1           0      -17.553773    2.753658    0.168098
     47          1           0      -15.174696    3.102352   -0.156356
     48          1           0      -14.856908    0.049135   -0.110554
     49          1           0      -12.838423    2.460806   -0.414831
     50          1           0      -12.537734   -0.591557   -0.323258
     51          1           0      -10.466064    1.794020   -0.609718
     52          1           0      -10.207692   -1.259545   -0.447375
     53          1           0       -8.090280    1.088098   -0.713857
     54          1           0       -7.892425   -1.964329   -0.466710
     55          1           0       -5.719742    0.334353   -0.712107
     56          1           0       -5.600873   -2.713643   -0.377587
     57          1           0       -3.380939   -0.473005   -0.600364
     58          1           0       -3.360168   -3.516721   -0.186764
     59          1           0       -0.966245   -3.407008   -0.062007
     60          1           0       -1.202862   -0.384421   -0.564215
     61          1           0        1.212677   -0.296702   -0.434725
     62          1           0        1.130702   -3.309157    0.165391
     63          1           0        3.490288   -3.250827    0.374628
     64          1           0        3.374800   -0.260477   -0.322241
     65          1           0        5.787133   -0.250136   -0.128710
     66          1           0        5.583834   -3.215549    0.651932
     67          1           0        7.972516   -3.215231    0.891481
     68          1           0        7.960674   -0.269756    0.020626
     69          1           0       10.198753   -2.343555    0.850743
     70          1           0       10.280684    0.582248   -0.070370
     71          1           0       12.477651   -1.537783    0.792443
     72          1           0       12.632764    1.368920   -0.179099
     73          1           0       14.784047   -0.787092    0.709844
     74          1           0       14.993049    2.101082   -0.305927
     75          1           0       17.111417   -0.079065    0.602799
     76          1           0       17.355886    2.794324   -0.446705
     77          1           0       19.454173    0.600524    0.475342
     78          1           0       19.718368    3.464712   -0.595417
     79          1           0       21.816557    1.268864    0.332953
     80          1           0       22.105895    4.125451   -0.744915
     81          1           0       23.453025    2.935062   -0.231302
     82          1           0      -23.315505    1.731683    1.072107
 ---------------------------------------------------------------------
 Rotational constants (GHZ):           0.3452322           0.0054594           0.0053845
 Standard basis: 6-31G(d,p) (6D, 7F)
 There are   810 symmetry adapted cartesian basis functions of A   symmetry.
 There are   810 symmetry adapted basis functions of A   symmetry.
   810 basis functions,  1414 primitive gaussians,   810 cartesian basis functions
   141 alpha electrons      141 beta electrons
       nuclear repulsion energy      2779.6228094285 Hartrees.
 NAtoms=   82 NActive=   82 NUniq=   82 SFac= 1.00D+00 NAtFMM=   60 NAOKFM=T Big=T
 Integral buffers will be    131072 words long.
 Raffenetti 2 integral format.
 Two-electron integral symmetry is turned on.
 One-electron integrals computed using PRISM.
 NBasis=   810 RedAO= T EigKep=  7.32D-04  NBF=   810
 NBsUse=   810 1.00D-06 EigRej= -1.00D+00 NBFU=   810
 ExpMin= 1.61D-01 ExpMax= 3.05D+03 ExpMxC= 4.57D+02 IAcc=3 IRadAn=         5 AccDes= 0.00D+00
 Harris functional with IExCor=  402 and IRadAn=       5 diagonalized for initial guess.
 HarFok:  IExCor=  402 AccDes= 0.00D+00 IRadAn=         5 IDoV= 1 UseB2=F ITyADJ=14
 ICtDFT=  3500011 ScaDFX=  1.000000  1.000000  1.000000  1.000000
 FoFCou: FMM=F IPFlag=           0 FMFlag=      100000 FMFlg1=        2001
         NFxFlg=           0 DoJE=T BraDBF=F KetDBF=T FulRan=T
         wScrn=  0.000000 ICntrl=       500 IOpCl=  0 I1Cent=   200000004 NGrid=           0
         NMat0=    1 NMatS0=      1 NMatT0=    0 NMatD0=    1 NMtDS0=    0 NMtDT0=    0
 Petite list used in FoFCou.
 Requested convergence on RMS density matrix=1.00D-08 within 128 cycles.
 Requested convergence on MAX density matrix=1.00D-06.
 Requested convergence on             energy=1.00D-06.
 No special actions if energy rises.
 Integral accuracy reduced to 1.0D-05 until final iterations.
 Initial convergence to 1.0D-05 achieved.  Increase integral accuracy.
 SCF Done:  E(RB3LYP) =  -1549.31347392     A.U. after   13 cycles
            NFock= 13  Conv=0.82D-08     -V/T= 2.0101

 **********************************************************************

            Population analysis using the SCF Density.

 **********************************************************************

 Orbital symmetries:
       Occupied  (A) (A) (A) (A) (A) (A) (A) (A) (A) (A) (A) (A)
                 (A) (A) (A) (A) (A) (A) (A) (A) (A) (A) (A) (A)
                 (A) (A) (A) (A) (A) (A) (A) (A) (A) (A) (A) (A)
                 (A) (A) (A) (A) (A) (A) (A) (A) (A) (A) (A) (A)
                 (A) (A) (A) (A) (A) (A) (A) (A) (A) (A) (A) (A)
                 (A) (A) (A) (A) (A) (A) (A) (A) (A) (A) (A) (A)
                 (A) (A) (A) (A) (A) (A) (A) (A) (A) (A) (A) (A)
                 (A) (A) (A) (A) (A) (A) (A) (A) (A) (A) (A) (A)
                 (A) (A) (A) (A) (A) (A) (A) (A) (A) (A) (A) (A)
                 (A) (A) (A) (A) (A) (A) (A) (A) (A) (A) (A) (A)
                 (A) (A) (A) (A) (A) (A) (A) (A) (A) (A) (A) (A)
                 (A) (A) (A) (A) (A) (A) (A) (A) (A)
       Virtual   (A) (A) (A) (A) (A) (A) (A) (A) (A) (A) (A) (A)
                 (A) (A) (A) (A) (A) (A) (A) (A) (A) (A) (A) (A)
                 (A) (A) (A) (A) (A) (A) (A) (A) (A) (A) (A) (A)
                 (A) (A) (A) (A) (A) (A) (A) (A) (A) (A) (A) (A)
                 (A) (A) (A) (A) (A) (A) (A) (A) (A) (A) (A) (A)
                 (A) (A) (A) (A) (A) (A) (A) (A) (A) (A) (A) (A)
                 (A) (A) (A) (A) (A) (A) (A) (A) (A) (A) (A) (A)
                 (A) (A) (A) (A) (A) (A) (A) (A) (A) (A) (A) (A)
                 (A) (A) (A) (A) (A) (A) (A) (A) (A) (A) (A) (A)
                 (A) (A) (A) (A) (A) (A) (A) (A) (A) (A) (A) (A)
                 (A) (A) (A) (A) (A) (A) (A) (A) (A) (A) (A) (A)
                 (A) (A) (A) (A) (A) (A) (A) (A) (A) (A) (A) (A)
                 (A) (A) (A) (A) (A) (A) (A) (A) (A) (A) (A) (A)
                 (A) (A) (A) (A) (A) (A) (A) (A) (A) (A) (A) (A)
                 (A) (A) (A) (A) (A) (A) (A) (A) (A) (A) (A) (A)
                 (A) (A) (A) (A) (A) (A) (A) (A) (A) (A) (A) (A)
                 (A) (A) (A) (A) (A) (A) (A) (A) (A) (A) (A) (A)
                 (A) (A) (A) (A) (A) (A) (A) (A) (A) (A) (A) (A)
                 (A) (A) (A) (A) (A) (A) (A) (A) (A) (A) (A) (A)
                 (A) (A) (A) (A) (A) (A) (A) (A) (A) (A) (A) (A)
                 (A) (A) (A) (A) (A) (A) (A) (A) (A) (A) (A) (A)
                 (A) (A) (A) (A) (A) (A) (A) (A) (A) (A) (A) (A)
                 (A) (A) (A) (A) (A) (A) (A) (A) (A) (A) (A) (A)
                 (A) (A) (A) (A) (A) (A) (A) (A) (A) (A) (A) (A)
                 (A) (A) (A) (A) (A) (A) (A) (A) (A) (A) (A) (A)
                 (A) (A) (A) (A) (A) (A) (A) (A) (A) (A) (A) (A)
                 (A) (A) (A) (A) (A) (A) (A) (A) (A) (A) (A) (A)
                 (A) (A) (A) (A) (A) (A) (A) (A) (A) (A) (A) (A)
                 (A) (A) (A) (A) (A) (A) (A) (A) (A) (A) (A) (A)
                 (A) (A) (A) (A) (A) (A) (A) (A) (A) (A) (A) (A)
                 (A) (A) (A) (A) (A) (A) (A) (A) (A) (A) (A) (A)
                 (A) (A) (A) (A) (A) (A) (A) (A) (A) (A) (A) (A)
                 (A) (A) (A) (A) (A) (A) (A) (A) (A) (A) (A) (A)
                 (A) (A) (A) (A) (A) (A) (A) (A) (A) (A) (A) (A)
                 (A) (A) (A) (A) (A) (A) (A) (A) (A) (A) (A) (A)
                 (A) (A) (A) (A) (A) (A) (A) (A) (A) (A) (A) (A)
                 (A) (A) (A) (A) (A) (A) (A) (A) (A) (A) (A) (A)
                 (A) (A) (A) (A) (A) (A) (A) (A) (A) (A) (A) (A)
                 (A) (A) (A) (A) (A) (A) (A) (A) (A) (A) (A) (A)
                 (A) (A) (A) (A) (A) (A) (A) (A) (A) (A) (A) (A)
                 (A) (A) (A) (A) (A) (A) (A) (A) (A) (A) (A) (A)
                 (A) (A) (A) (A) (A) (A) (A) (A) (A) (A) (A) (A)
                 (A) (A) (A) (A) (A) (A) (A) (A) (A) (A) (A) (A)
                 (A) (A) (A) (A) (A) (A) (A) (A) (A) (A) (A) (A)
                 (A) (A) (A) (A) (A) (A) (A) (A) (A) (A) (A) (A)
                 (A) (A) (A) (A) (A) (A) (A) (A) (A) (A) (A) (A)
                 (A) (A) (A) (A) (A) (A) (A) (A) (A) (A) (A) (A)
                 (A) (A) (A) (A) (A) (A) (A) (A) (A) (A) (A) (A)
                 (A) (A) (A) (A) (A) (A) (A) (A) (A) (A) (A) (A)
                 (A) (A) (A) (A) (A) (A) (A) (A) (A) (A) (A) (A)
                 (A) (A) (A) (A) (A) (A) (A) (A) (A) (A) (A) (A)
                 (A) (A) (A) (A) (A) (A) (A) (A) (A) (A) (A) (A)
                 (A) (A) (A) (A) (A) (A) (A) (A) (A) (A) (A) (A)
                 (A) (A) (A) (A) (A) (A) (A) (A) (A) (A) (A) (A)
                 (A) (A) (A) (A) (A) (A) (A) (A) (A) (A) (A) (A)
                 (A) (A) (A) (A) (A) (A) (A) (A) (A)
 The electronic state is 1-A.
 Alpha  occ. eigenvalues --  -10.19421 -10.19412 -10.19384 -10.19379 -10.19313
 Alpha  occ. eigenvalues --  -10.19297 -10.19274 -10.19263 -10.19243 -10.19236
 Alpha  occ. eigenvalues --  -10.19225 -10.19223 -10.19222 -10.19215 -10.19213
 Alpha  occ. eigenvalues --  -10.19202 -10.19198 -10.19195 -10.19189 -10.19178
 Alpha  occ. eigenvalues --  -10.19166 -10.19165 -10.19165 -10.19142 -10.19138
 Alpha  occ. eigenvalues --  -10.19134 -10.19132 -10.19120 -10.19114 -10.19102
 Alpha  occ. eigenvalues --  -10.19093 -10.19091 -10.19073 -10.19072 -10.19054
 Alpha  occ. eigenvalues --  -10.19040 -10.19014 -10.18935 -10.17946 -10.17913
 Alpha  occ. eigenvalues --   -0.82941  -0.82862  -0.82522  -0.82265  -0.81881
 Alpha  occ. eigenvalues --   -0.81439  -0.80896  -0.80280  -0.79569  -0.78794
 Alpha  occ. eigenvalues --   -0.77948  -0.77029  -0.76059  -0.75015  -0.73967
 Alpha  occ. eigenvalues --   -0.72830  -0.71648  -0.70428  -0.69465  -0.68353
 Alpha  occ. eigenvalues --   -0.65109  -0.63745  -0.62635  -0.61517  -0.60219
 Alpha  occ. eigenvalues --   -0.58920  -0.57834  -0.57444  -0.56873  -0.56869
 Alpha  occ. eigenvalues --   -0.56281  -0.56119  -0.55834  -0.55283  -0.55119
 Alpha  occ. eigenvalues --   -0.55005  -0.54500  -0.52736  -0.52070  -0.50149
 Alpha  occ. eigenvalues --   -0.50091  -0.48839  -0.48322  -0.47938  -0.47449
 Alpha  occ. eigenvalues --   -0.47259  -0.46649  -0.46069  -0.45762  -0.44946
 Alpha  occ. eigenvalues --   -0.44849  -0.44096  -0.43728  -0.43219  -0.42623
 Alpha  occ. eigenvalues --   -0.41540  -0.41214  -0.40886  -0.40568  -0.39691
 Alpha  occ. eigenvalues --   -0.39243  -0.39146  -0.38799  -0.38176  -0.38102
 Alpha  occ. eigenvalues --   -0.37847  -0.37570  -0.37310  -0.37034  -0.36627
 Alpha  occ. eigenvalues --   -0.36336  -0.35986  -0.35817  -0.35346  -0.35265
 Alpha  occ. eigenvalues --   -0.35215  -0.35167  -0.34764  -0.34682  -0.34510
 Alpha  occ. eigenvalues --   -0.34418  -0.34237  -0.33988  -0.33943  -0.33382
 Alpha  occ. eigenvalues --   -0.33222  -0.33195  -0.32690  -0.31908  -0.31003
 Alpha  occ. eigenvalues --   -0.30009  -0.28933  -0.27749  -0.26491  -0.25142
 Alpha  occ. eigenvalues --   -0.23732  -0.22253  -0.20738  -0.19207  -0.17907
 Alpha  occ. eigenvalues --   -0.16823
 Alpha virt. eigenvalues --   -0.08506  -0.07064  -0.05797  -0.04127  -0.02367
 Alpha virt. eigenvalues --   -0.00619   0.00930   0.02411   0.03954   0.05088
 Alpha virt. eigenvalues --    0.06636   0.07488   0.07801   0.08160   0.08379
 Alpha virt. eigenvalues --    0.08453   0.08909   0.09031   0.09498   0.09521
 Alpha virt. eigenvalues --    0.09738   0.09899   0.10211   0.10964   0.11709
 Alpha virt. eigenvalues --    0.11781   0.12054   0.12458   0.12486   0.12549
 Alpha virt. eigenvalues --    0.12615   0.12763   0.12791   0.13113   0.13575
 Alpha virt. eigenvalues --    0.14010   0.14205   0.14242   0.14289   0.14402
 Alpha virt. eigenvalues --    0.14608   0.14809   0.14969   0.15414   0.15461
 Alpha virt. eigenvalues --    0.15786   0.16061   0.16194   0.16726   0.17740
 Alpha virt. eigenvalues --    0.18281   0.19143   0.19560   0.19843   0.19998
 Alpha virt. eigenvalues --    0.20632   0.21199   0.21933   0.22534   0.22835
 Alpha virt. eigenvalues --    0.23925   0.25792   0.25881   0.27134   0.27296
 Alpha virt. eigenvalues --    0.28120   0.28563   0.28647   0.29005   0.30063
 Alpha virt. eigenvalues --    0.30720   0.31293   0.31883   0.32254   0.32658
 Alpha virt. eigenvalues --    0.33166   0.33266   0.33745   0.34942   0.35120
 Alpha virt. eigenvalues --    0.35996   0.36198   0.36493   0.37010   0.37272
 Alpha virt. eigenvalues --    0.38135   0.38514   0.39162   0.39693   0.40652
 Alpha virt. eigenvalues --    0.41454   0.41702   0.41827   0.42038   0.42291
 Alpha virt. eigenvalues --    0.43297   0.44461   0.44902   0.45557   0.47183
 Alpha virt. eigenvalues --    0.48232   0.48522   0.49433   0.50872   0.51325
 Alpha virt. eigenvalues --    0.51542   0.51696   0.51966   0.52317   0.52791
 Alpha virt. eigenvalues --    0.52818   0.53306   0.53363   0.53822   0.53934
 Alpha virt. eigenvalues --    0.54674   0.54901   0.54991   0.55456   0.55879
 Alpha virt. eigenvalues --    0.56262   0.56431   0.56876   0.57232   0.57258
 Alpha virt. eigenvalues --    0.57447   0.57593   0.58122   0.58455   0.58693
 Alpha virt. eigenvalues --    0.58751   0.58816   0.58948   0.59212   0.59319
 Alpha virt. eigenvalues --    0.59379   0.59441   0.60307   0.60403   0.60894
 Alpha virt. eigenvalues --    0.60917   0.60941   0.61068   0.61176   0.61800
 Alpha virt. eigenvalues --    0.62043   0.62321   0.62406   0.63036   0.63270
 Alpha virt. eigenvalues --    0.63476   0.63820   0.64265   0.64442   0.64522
 Alpha virt. eigenvalues --    0.65087   0.65157   0.65208   0.65390   0.65607
 Alpha virt. eigenvalues --    0.65744   0.66165   0.66249   0.66465   0.66639
 Alpha virt. eigenvalues --    0.66705   0.67398   0.67948   0.68219   0.68471
 Alpha virt. eigenvalues --    0.68703   0.69111   0.69776   0.69927   0.70725
 Alpha virt. eigenvalues --    0.71736   0.72393   0.72779   0.73857   0.75067
 Alpha virt. eigenvalues --    0.75273   0.75816   0.76232   0.78753   0.78786
 Alpha virt. eigenvalues --    0.79506   0.79659   0.80474   0.80817   0.81384
 Alpha virt. eigenvalues --    0.81692   0.82031   0.82480   0.83032   0.83533
 Alpha virt. eigenvalues --    0.83814   0.83966   0.84519   0.84612   0.84817
 Alpha virt. eigenvalues --    0.84897   0.85147   0.85518   0.85805   0.86071
 Alpha virt. eigenvalues --    0.86286   0.86715   0.86938   0.87058   0.87209
 Alpha virt. eigenvalues --    0.87284   0.87603   0.87685   0.88080   0.88303
 Alpha virt. eigenvalues --    0.88516   0.89102   0.89344   0.89772   0.90663
 Alpha virt. eigenvalues --    0.90779   0.90991   0.91370   0.91526   0.92024
 Alpha virt. eigenvalues --    0.92208   0.92658   0.92953   0.93191   0.93660
 Alpha virt. eigenvalues --    0.94048   0.94405   0.95356   0.95744   0.96234
 Alpha virt. eigenvalues --    0.96971   0.97531   0.97547   0.98971   1.01437
 Alpha virt. eigenvalues --    1.02725   1.03003   1.03303   1.03433   1.03660
 Alpha virt. eigenvalues --    1.04238   1.04391   1.04854   1.05568   1.05697
 Alpha virt. eigenvalues --    1.06149   1.06920   1.07303   1.07641   1.08043
 Alpha virt. eigenvalues --    1.08642   1.08814   1.09266   1.09771   1.10386
 Alpha virt. eigenvalues --    1.10755   1.10938   1.11313   1.12193   1.13951
 Alpha virt. eigenvalues --    1.15816   1.17163   1.17923   1.18764   1.19005
 Alpha virt. eigenvalues --    1.19161   1.20853   1.21114   1.21350   1.22319
 Alpha virt. eigenvalues --    1.23517   1.24445   1.26557   1.27731   1.28175
 Alpha virt. eigenvalues --    1.28765   1.29009   1.29041   1.29425   1.29779
 Alpha virt. eigenvalues --    1.29920   1.30054   1.30384   1.30711   1.30787
 Alpha virt. eigenvalues --    1.30998   1.31218   1.31363   1.31482   1.31550
 Alpha virt. eigenvalues --    1.32027   1.32335   1.32494   1.32535   1.32816
 Alpha virt. eigenvalues --    1.32846   1.32991   1.33104   1.33579   1.33826
 Alpha virt. eigenvalues --    1.34578   1.34655   1.36129   1.36571   1.37203
 Alpha virt. eigenvalues --    1.37716   1.38502   1.38511   1.40171   1.40764
 Alpha virt. eigenvalues --    1.42248   1.42973   1.43189   1.43690   1.43959
 Alpha virt. eigenvalues --    1.44320   1.45258   1.45732   1.45995   1.46538
 Alpha virt. eigenvalues --    1.46970   1.47127   1.48001   1.48644   1.49079
 Alpha virt. eigenvalues --    1.49453   1.49584   1.50483   1.50591   1.50643
 Alpha virt. eigenvalues --    1.51442   1.51836   1.51869   1.52551   1.52619
 Alpha virt. eigenvalues --    1.53532   1.57508   1.61379   1.68059   1.73959
 Alpha virt. eigenvalues --    1.75150   1.75344   1.75742   1.76323   1.76481
 Alpha virt. eigenvalues --    1.76566   1.76615   1.76774   1.76933   1.77117
 Alpha virt. eigenvalues --    1.77406   1.77719   1.78038   1.78122   1.78188
 Alpha virt. eigenvalues --    1.78486   1.78757   1.78983   1.83009   1.83060
 Alpha virt. eigenvalues --    1.85681   1.85720   1.85908   1.86013   1.86257
 Alpha virt. eigenvalues --    1.87609   1.88638   1.89714   1.89839   1.90079
 Alpha virt. eigenvalues --    1.91610   1.91926   1.92067   1.92569   1.92771
 Alpha virt. eigenvalues --    1.92850   1.93180   1.93446   1.93833   1.93955
 Alpha virt. eigenvalues --    1.94370   1.94469   1.94760   1.95112   1.95322
 Alpha virt. eigenvalues --    1.96065   1.96506   1.96836   1.96934   1.97740
 Alpha virt. eigenvalues --    1.98147   1.98646   1.98799   2.00684   2.02191
 Alpha virt. eigenvalues --    2.02679   2.03195   2.03434   2.04024   2.04648
 Alpha virt. eigenvalues --    2.05184   2.06374   2.06781   2.07168   2.08183
 Alpha virt. eigenvalues --    2.08501   2.08809   2.09461   2.09883   2.10235
 Alpha virt. eigenvalues --    2.10774   2.11250   2.11612   2.12245   2.13541
 Alpha virt. eigenvalues --    2.14138   2.14617   2.15764   2.15932   2.16349
 Alpha virt. eigenvalues --    2.16500   2.17688   2.17999   2.18192   2.18455
 Alpha virt. eigenvalues --    2.19470   2.20489   2.20720   2.21353   2.21779
 Alpha virt. eigenvalues --    2.21851   2.22454   2.22896   2.23451   2.24230
 Alpha virt. eigenvalues --    2.24437   2.24994   2.25685   2.26641   2.27269
 Alpha virt. eigenvalues --    2.28243   2.28776   2.29762   2.30325   2.31347
 Alpha virt. eigenvalues --    2.32369   2.32565   2.33706   2.34293   2.34978
 Alpha virt. eigenvalues --    2.36040   2.36970   2.37143   2.37565   2.38265
 Alpha virt. eigenvalues --    2.39570   2.41599   2.41652   2.41887   2.44056
 Alpha virt. eigenvalues --    2.44630   2.44742   2.44821   2.45008   2.45569
 Alpha virt. eigenvalues --    2.46383   2.46551   2.46977   2.47382   2.48076
 Alpha virt. eigenvalues --    2.48296   2.48563   2.48683   2.49128   2.49518
 Alpha virt. eigenvalues --    2.49997   2.50064   2.50341   2.50794   2.51043
 Alpha virt. eigenvalues --    2.51498   2.51926   2.52093   2.52245   2.52757
 Alpha virt. eigenvalues --    2.53085   2.53416   2.53499   2.53991   2.54578
 Alpha virt. eigenvalues --    2.55265   2.55627   2.55803   2.55899   2.56689
 Alpha virt. eigenvalues --    2.56870   2.57158   2.57415   2.57963   2.58951
 Alpha virt. eigenvalues --    2.59111   2.59476   2.59566   2.60574   2.60718
 Alpha virt. eigenvalues --    2.60986   2.61301   2.61946   2.62453   2.62556
 Alpha virt. eigenvalues --    2.62928   2.63558   2.63985   2.64097   2.64585
 Alpha virt. eigenvalues --    2.65579   2.66024   2.66069   2.66951   2.67379
 Alpha virt. eigenvalues --    2.67458   2.67961   2.68222   2.68526   2.69119
 Alpha virt. eigenvalues --    2.69533   2.69629   2.69653   2.69820   2.70207
 Alpha virt. eigenvalues --    2.70429   2.70638   2.71062   2.71267   2.71473
 Alpha virt. eigenvalues --    2.71864   2.72291   2.73403   2.74181   2.74726
 Alpha virt. eigenvalues --    2.77180   2.78767   2.78991   2.79853   2.82599
 Alpha virt. eigenvalues --    2.83549   2.83994   2.86248   2.86549   2.86609
 Alpha virt. eigenvalues --    2.88257   2.88909   2.90034   2.91079   2.91363
 Alpha virt. eigenvalues --    2.91407   2.91829   2.92182   2.92623   2.92807
 Alpha virt. eigenvalues --    2.93703   2.94560   2.94657   2.95218   2.95685
 Alpha virt. eigenvalues --    2.96373   2.97251   2.97389   2.98362   2.99020
 Alpha virt. eigenvalues --    2.99685   2.99792   2.99898   3.00093   3.00923
 Alpha virt. eigenvalues --    3.01393   3.03040   3.04287   3.10787   3.16042
 Alpha virt. eigenvalues --    3.16201   3.20283   3.27957   3.28032   3.32920
 Alpha virt. eigenvalues --    3.33060   3.33264   3.33670   3.33878   3.34918
 Alpha virt. eigenvalues --    3.35391   3.35471   3.35596   3.36543   3.37470
 Alpha virt. eigenvalues --    3.38577   3.40381   3.40995   3.41254   3.44633
 Alpha virt. eigenvalues --    3.45301   3.49084   3.50213   3.51470   3.52688
 Alpha virt. eigenvalues --    3.53139   3.54170   3.55081   3.56044   3.56311
 Alpha virt. eigenvalues --    3.59104   3.60132   3.61243   3.61823   3.63578
 Alpha virt. eigenvalues --    3.65467   3.65946   3.66398   3.66920   3.69777
 Alpha virt. eigenvalues --    3.71040   3.72882   3.75295   3.79253   4.10813
 Alpha virt. eigenvalues --    4.11788   4.12243   4.13551   4.13746   4.13792
 Alpha virt. eigenvalues --    4.13938   4.13998   4.14283   4.14424   4.14975
 Alpha virt. eigenvalues --    4.15368   4.15951   4.16629   4.17348   4.18266
 Alpha virt. eigenvalues --    4.19359   4.20782   4.21644   4.25758   4.26545
 Alpha virt. eigenvalues --    4.29484   4.30915   4.33900   4.36404   4.39256
 Alpha virt. eigenvalues --    4.42206   4.45306   4.48522   4.51645   4.55402
 Alpha virt. eigenvalues --    4.58464   4.61730   4.64802   4.67659   4.70326
 Alpha virt. eigenvalues --    4.72565   4.74373   4.75412   4.76643
          Condensed to atoms (all electrons):
 Mulliken charges:
               1
     1  C   -0.254994
     2  C   -0.029962
     3  C   -0.055356
     4  C   -0.103010
     5  C   -0.080985
     6  C   -0.079272
     7  C   -0.107583
     8  C   -0.056041
     9  C   -0.075800
    10  C   -0.083250
    11  C   -0.079275
    12  C   -0.079996
    13  C   -0.078610
    14  C   -0.080657
    15  C   -0.081634
    16  C   -0.077262
    17  C   -0.055810
    18  C   -0.106014
    19  C   -0.075791
    20  C   -0.085445
    21  C   -0.082558
    22  C   -0.078925
    23  C   -0.079072
    24  C   -0.082433
    25  C   -0.085488
    26  C   -0.075744
    27  C   -0.106225
    28  C   -0.055733
    29  C   -0.077286
    30  C   -0.081686
    31  C   -0.080635
    32  C   -0.078613
    33  C   -0.080354
    34  C   -0.079459
    35  C   -0.079407
    36  C   -0.080564
    37  C   -0.076992
    38  C   -0.077785
    39  C   -0.033653
    40  C   -0.251979
    41  H    0.095473
    42  H    0.084424
    43  H    0.082760
    44  H    0.081124
    45  H    0.078761
    46  H    0.079646
    47  H    0.080268
    48  H    0.081190
    49  H    0.080906
    50  H    0.079971
    51  H    0.080813
    52  H    0.080094
    53  H    0.080777
    54  H    0.080332
    55  H    0.080855
    56  H    0.080842
    57  H    0.082122
    58  H    0.080263
    59  H    0.080208
    60  H    0.079734
    61  H    0.080873
    62  H    0.080166
    63  H    0.080151
    64  H    0.080851
    65  H    0.079685
    66  H    0.080193
    67  H    0.080194
    68  H    0.081986
    69  H    0.080741
    70  H    0.080666
    71  H    0.080230
    72  H    0.080540
    73  H    0.080029
    74  H    0.080455
    75  H    0.080130
    76  H    0.080677
    77  H    0.080883
    78  H    0.081616
    79  H    0.083675
    80  H    0.095497
    81  H    0.095348
    82  H    0.096193
 Sum of Mulliken charges =  -0.00000
 Mulliken charges with hydrogens summed into heavy atoms:
               1
     1  C   -0.063328
     2  C    0.054461
     3  C    0.027404
     4  C   -0.021887
     5  C   -0.002224
     6  C    0.000374
     7  C   -0.027316
     8  C    0.025149
     9  C    0.005105
    10  C   -0.003279
    11  C    0.001538
    12  C    0.000098
    13  C    0.002166
    14  C   -0.000325
    15  C   -0.000778
    16  C    0.003580
    17  C    0.026312
    18  C   -0.025751
    19  C    0.004417
    20  C   -0.005712
    21  C   -0.001685
    22  C    0.001241
    23  C    0.001078
    24  C   -0.001582
    25  C   -0.005803
    26  C    0.004449
    27  C   -0.026030
    28  C    0.026253
    29  C    0.003455
    30  C   -0.001020
    31  C   -0.000406
    32  C    0.001927
    33  C   -0.000325
    34  C    0.000995
    35  C    0.000722
    36  C    0.000113
    37  C    0.003891
    38  C    0.003831
    39  C    0.050022
    40  C   -0.061133
 Electronic spatial extent (au):  <R**2>=         183005.8655
 Charge=             -0.0000 electrons
 Dipole moment (field-independent basis, Debye):
    X=              0.2224    Y=             -0.2051    Z=              0.1206  Tot=              0.3256
 Quadrupole moment (field-independent basis, Debye-Ang):
   XX=           -233.8991   YY=           -212.6863   ZZ=           -256.9268
   XY=             -0.0447   XZ=              0.0268   YZ=             -8.8751
 Traceless Quadrupole moment (field-independent basis, Debye-Ang):
   XX=              0.6049   YY=             21.8178   ZZ=            -22.4227
   XY=             -0.0447   XZ=              0.0268   YZ=             -8.8751
 Octapole moment (field-independent basis, Debye-Ang**2):
  XXX=             90.3890  YYY=             -7.3461  ZZZ=              0.8424  XYY=            -39.7005
  XXY=           -154.2894  XXZ=            102.5259  XZZ=             28.7582  YZZ=             -0.8174
  YYZ=              0.9914  XYZ=            -77.7050
 Hexadecapole moment (field-independent basis, Debye-Ang**3):
 XXXX=        -244621.7149 YYYY=          -3748.5741 ZZZZ=           -540.3787 XXXY=           -409.0544
 XXXZ=           -302.3975 YYYX=           -160.7990 YYYZ=            -86.6472 ZZZX=             15.0780
 ZZZY=            -13.7636 XXYY=         -39156.6204 XXZZ=         -45875.1790 YYZZ=           -817.6669
 XXYZ=          -1462.1538 YYXZ=           -155.6364 ZZXY=              6.8291
 N-N= 2.779622809429D+03 E-N=-9.142897430076D+03  KE= 1.533761364921D+03
 Calling FoFJK, ICntrl=      2127 FMM=T ISym2X=0 I1Cent= 0 IOpClX= 0 NMat=1 NMatS=1 NMatT=0.
 ***** Axes restored to original set *****
 -------------------------------------------------------------------
 Center     Atomic                   Forces (Hartrees/Bohr)
 Number     Number              X              Y              Z
 -------------------------------------------------------------------
      1        6          -0.008706823    0.002337766   -0.000978850
      2        6           0.015626096   -0.013677073    0.013630076
      3        6          -0.020233286    0.017547986   -0.017422090
      4        6           0.029029868   -0.010009370    0.005648645
      5        6          -0.027851569    0.008221917   -0.003591300
      6        6           0.029172186   -0.008632662    0.003433610
      7        6          -0.032842703    0.009800431   -0.003918042
      8        6           0.027973536   -0.019437576    0.016639553
      9        6          -0.034206946    0.016651398   -0.010890919
     10        6           0.032762340   -0.017327586    0.011362975
     11        6          -0.033081873    0.017731240   -0.011118284
     12        6           0.033252282   -0.018058624    0.010501031
     13        6          -0.033102960    0.018210404   -0.009953245
     14        6           0.033691394   -0.018571036    0.009108032
     15        6          -0.033231204    0.018404124   -0.008256193
     16        6           0.035225481   -0.018503353    0.006388596
     17        6          -0.030647894    0.020457218   -0.011421503
     18        6           0.033620102   -0.013052868   -0.003536400
     19        6          -0.029800861    0.013063810    0.001166183
     20        6           0.030904190   -0.012525868   -0.003003548
     21        6          -0.030414834    0.014849016   -0.001240285
     22        6           0.029498711   -0.015562154    0.000797113
     23        6          -0.030405500    0.013121963    0.004352475
     24        6           0.031069236   -0.012959834   -0.004122661
     25        6          -0.029967040    0.014707809   -0.000358610
     26        6           0.029238247   -0.014024855   -0.001623167
     27        6          -0.032273661    0.016487002   -0.000606478
     28        6           0.034136936   -0.009846304   -0.014778592
     29        6          -0.036742539    0.013401256    0.009250328
     30        6           0.035153907   -0.012074286   -0.010869587
     31        6          -0.035660301    0.011762868    0.011520652
     32        6           0.035015324   -0.011277729   -0.011948238
     33        6          -0.035010605    0.010853381    0.012402249
     34        6           0.034408057   -0.010503914   -0.012592241
     35        6          -0.034064611    0.009936033    0.013250950
     36        6           0.032976371   -0.009508018   -0.013121574
     37        6          -0.031654372    0.008294155    0.014640955
     38        6           0.027862173   -0.006893093   -0.014048414
     39        6          -0.018687520    0.002082007    0.016431075
     40        6           0.008695040   -0.003431817   -0.000808678
     41        1          -0.002461555    0.000304243    0.000223948
     42        1           0.005332254    0.000092646   -0.001244751
     43        1          -0.002245460   -0.001139859    0.001916816
     44        1           0.000282631    0.000418754   -0.000450458
     45        1           0.003455492    0.000543630   -0.001460112
     46        1          -0.003144147   -0.000476565    0.001601169
     47        1          -0.000390540   -0.000234848    0.000668730
     48        1           0.001937290    0.001327100   -0.002091497
     49        1          -0.003278703    0.000539386    0.000680513
     50        1           0.003302904   -0.000298288   -0.000406896
     51        1          -0.003172527    0.000614010    0.000796279
     52        1           0.003282750   -0.000367457   -0.000454168
     53        1          -0.003124113    0.000676792    0.000944593
     54        1           0.003253203   -0.000427134   -0.000563733
     55        1          -0.003077826    0.000707918    0.001121561
     56        1           0.003296601   -0.000516296   -0.000717518
     57        1          -0.001929266   -0.000600797    0.002234758
     58        1           0.000028512    0.000498784   -0.000239036
     59        1           0.003985058   -0.000045348   -0.002331853
     60        1          -0.001670045   -0.000420884    0.002225132
     61        1           0.001112260   -0.001766134    0.002144566
     62        1          -0.002584476    0.002599535   -0.002366778
     63        1           0.003425593   -0.000077048   -0.002614995
     64        1          -0.001777538   -0.000265748    0.002345122
     65        1           0.001025426   -0.001623905    0.002148389
     66        1          -0.003091072    0.002542372   -0.002323290
     67        1           0.000108787    0.000020477   -0.000446676
     68        1           0.001203412   -0.001538441    0.002268337
     69        1          -0.002904559    0.001647970   -0.000723829
     70        1           0.002718268   -0.001759457    0.000853821
     71        1          -0.002870924    0.001542619   -0.000678497
     72        1           0.002767750   -0.001682346    0.000760830
     73        1          -0.002893852    0.001501488   -0.000665387
     74        1           0.002810364   -0.001619788    0.000719228
     75        1          -0.002892647    0.001474839   -0.000663824
     76        1           0.002833422   -0.001554937    0.000680256
     77        1          -0.002866656    0.001455708   -0.000665340
     78        1           0.003047730   -0.001596069    0.000666256
     79        1          -0.004350848    0.002548135   -0.001934296
     80        1           0.002160612   -0.001098796    0.000413642
     81        1           0.000672148   -0.001756884    0.004090371
     82        1          -0.002040093   -0.002233141    0.003223018
 -------------------------------------------------------------------
 Cartesian Forces:  Max     0.036742539 RMS     0.014164518

 GradGradGradGradGradGradGradGradGradGradGradGradGradGradGradGradGradGrad
 Berny optimization.
 FormGI is forming the generalized inverse of G from B-inverse, IUseBI=4.
 Internal  Forces:  Max     0.022823254 RMS     0.007492265
 Search for a local minimum.
 Step number   1 out of a maximum of  367
 All quantities printed in internal units (Hartrees-Bohrs-Radians)
 Mixed Optimization -- RFO/linear search
 Second derivative matrix not updated -- first step.
 ITU=  0
     Eigenvalues ---    0.00874   0.00874   0.00916   0.00928   0.00943
     Eigenvalues ---    0.00956   0.00958   0.01042   0.01043   0.01045
     Eigenvalues ---    0.01052   0.01053   0.01054   0.01055   0.01055
     Eigenvalues ---    0.01055   0.01056   0.01056   0.01064   0.01850
     Eigenvalues ---    0.01851   0.01852   0.01853   0.01878   0.01885
     Eigenvalues ---    0.01889   0.01896   0.01896   0.01897   0.01903
     Eigenvalues ---    0.01906   0.01914   0.01915   0.01959   0.01959
     Eigenvalues ---    0.01961   0.01965   0.01968   0.01970   0.01971
     Eigenvalues ---    0.01975   0.01975   0.01977   0.01977   0.01977
     Eigenvalues ---    0.01977   0.01977   0.01978   0.01978   0.01978
     Eigenvalues ---    0.01978   0.01978   0.01978   0.01979   0.01982
     Eigenvalues ---    0.01989   0.01998   0.02747   0.02747   0.02750
     Eigenvalues ---    0.02751   0.02751   0.02819   0.02821   0.02822
     Eigenvalues ---    0.02825   0.02886   0.02887   0.02889   0.02889
     Eigenvalues ---    0.02890   0.02891   0.02892   0.02892   0.02892
     Eigenvalues ---    0.02947   0.02947   0.02950   0.02950   0.15997
     Eigenvalues ---    0.15997   0.15997   0.15997   0.15998   0.15998
     Eigenvalues ---    0.15998   0.15998   0.15998   0.15999   0.15999
     Eigenvalues ---    0.15999   0.15999   0.15999   0.16000   0.16000
     Eigenvalues ---    0.16000   0.16000   0.16000   0.16000   0.16000
     Eigenvalues ---    0.16000   0.16000   0.16000   0.16000   0.16000
     Eigenvalues ---    0.16000   0.16000   0.16000   0.16000   0.16000
     Eigenvalues ---    0.16000   0.16000   0.16000   0.16000   0.16000
     Eigenvalues ---    0.16000   0.16000   0.16000   0.16000   0.16000
     Eigenvalues ---    0.16000   0.22000   0.22000   0.22000   0.22000
     Eigenvalues ---    0.22000   0.22000   0.22000   0.22000   0.22000
     Eigenvalues ---    0.22000   0.22000   0.22000   0.22000   0.22000
     Eigenvalues ---    0.22000   0.22000   0.22000   0.22000   0.22000
     Eigenvalues ---    0.22000   0.22000   0.22000   0.22000   0.22000
     Eigenvalues ---    0.22000   0.22000   0.22000   0.22000   0.22000
     Eigenvalues ---    0.22000   0.22001   0.22001   0.22001   0.22001
     Eigenvalues ---    0.22001   0.22001   0.22001   0.22001   0.33246
     Eigenvalues ---    0.33249   0.33599   0.33699   0.33822   0.33930
     Eigenvalues ---    0.33952   0.34673   0.34678   0.34693   0.34758
     Eigenvalues ---    0.34769   0.34773   0.34778   0.34785   0.34786
     Eigenvalues ---    0.34789   0.34789   0.34857   0.35043   0.35049
     Eigenvalues ---    0.35050   0.35056   0.35056   0.35061   0.35062
     Eigenvalues ---    0.35066   0.35069   0.35087   0.35092   0.35096
     Eigenvalues ---    0.35101   0.35103   0.35108   0.35112   0.35117
     Eigenvalues ---    0.35123   0.35146   0.35153   0.35168   0.35181
     Eigenvalues ---    0.35184   0.35189   0.35280   0.35280   0.35366
     Eigenvalues ---    0.35368   0.35557   0.35565   0.35627   0.35656
     Eigenvalues ---    0.35679   0.35693   0.35718   0.35727   0.35772
     Eigenvalues ---    0.35799   0.35902   0.35913   0.35915   0.35922
     Eigenvalues ---    0.54970   0.54977   0.55018   0.55027   0.55037
     Eigenvalues ---    0.56144   0.56169   0.56200   0.56248   0.57257
     Eigenvalues ---    0.57275   0.57311   0.57314   0.57325   0.57356
     Eigenvalues ---    0.57361   0.57365   0.57369   0.58306   0.58366
 RFO step:  Lambda=-5.43269807D-02 EMin= 8.73586962D-03
 Linear search not attempted -- first point.
 Maximum step size (   0.300) exceeded in Quadratic search.
    -- Step size scaled by   0.744
 Iteration  1 RMS(Cart)=  0.29799340 RMS(Int)=  0.00333150
 Iteration  2 RMS(Cart)=  0.02267486 RMS(Int)=  0.00003723
 Iteration  3 RMS(Cart)=  0.00021279 RMS(Int)=  0.00000977
 Iteration  4 RMS(Cart)=  0.00000002 RMS(Int)=  0.00000977
 Variable       Old X    -DE/DX   Delta X   Delta X   Delta X     New X
                                 (Linear)    (Quad)   (Total)
    R1        2.52306   0.01205   0.00000   0.01407   0.01407   2.53713
    R2        2.05223  -0.00012   0.00000  -0.00021  -0.00021   2.05202
[...]
 0332,-0.00000288,0.00000183,-0.00000447,0.00000417,-0.00000139,0.00000
 357,-0.00000341,0.00000129,-0.00000491,0.00000487,-0.00000089,0.000003
 78,-0.00000386,0.00000088,-0.00000533,0.00000559,-0.00000090,0.0000035
 0,-0.00000358,0.00000115,-0.00000830,0.00000861,-0.00000147,0.00000589
 ,-0.00000590,0.00000782,0.00000463,-0.00000866,-0.00000745,-0.00000363
 ,0.00000735,0.00000411,-0.00000994,0.00000942,-0.00000446,0.00000953,-
 0.00000903,0.00001262,0.00000341,-0.00001010,-0.00001388,-0.00000461,0
 .00001197,0.00001002,-0.00001289,0.00001100,-0.00001070,0.00001558,-0.
 00001408,0.00001802,-0.00000384,-0.00000575,-0.00001821,0.00000667,0.0
 0000089,0.00002519,-0.00000184,-0.00000384,-0.00002533,0.00000992,-0.0
 0000192,0.00002833,-0.00002285,-0.00001845,-0.00004041,0.00002287,-0.0
 0000395,0.00007966,0.00005527,0.00004297,-0.00011766,0.00003329,-0.000
 01902,-0.00000962,-0.00026604,-0.00037486,-0.00048298,0.00011928,0.000
 20019,0.00220197,0.00354152,0.00024805,-0.00792782,0.00161881,0.003925
 52,-0.31617384,0.08520623,0.03467354,0.00000018,0.00000003,-0.00000011
 ,-0.00000005,0.00000059,-0.00000065,0.00000010,0.00000013,-0.00000018,
 -0.00000058,0.00000087,-0.00000073,0.00000050,-0.00000020,0.,-0.000000
 82,0.00000006,0.00000029,0.00000043,0.00000006,-0.00000025,-0.00000031
 ,0.00000063,-0.00000055,0.00000005,0.00000010,-0.00000011,-0.00000034,
 0.00000084,-0.00000076,-0.00000002,0.00000021,-0.00000020,-0.00000036,
 0.00000093,-0.00000084,-0.00000004,0.00000030,-0.00000028,-0.00000041,
 0.00000104,-0.00000094,-0.00000006,0.00000043,-0.00000040,-0.00000044,
 0.00000118,-0.00000110,0.,0.00000049,-0.00000053,-0.00000103,0.0000017
 3,-0.00000145,0.00000063,-0.00000035,0.00000021,-0.00000174,-0.0000002
 1,0.00000108,0.00000062,0.00000015,-0.00000046,-0.00000131,0.00000169,
 -0.00000132,0.00000056,-0.00000043,0.00000039,-0.00000202,-0.00000019,
 0.00000127,0.00000079,0.00000039,-0.00000070,-0.00000170,0.00000222,-0
 .00000176,0.00000055,-0.00000062,0.00000055,-0.00000220,-0.00000054,0.
 00000193,-0.00000072,-0.00000044,0.00000153,-0.00000275,-0.00000105,0.
 00000295,-0.00000140,-0.00000132,0.00000122,-0.00000292,-0.00000125,0.
 00000385,0.00000078,0.00000412,0.00000558,-0.00000256,-0.00000263,0.00
 000480,-0.00000603,-0.00001678,-0.00001258,0.00000965,-0.00000540,0.00
 001407,0.00000582,0.00007639,-0.00002589,0.00032146,-0.00020959,-0.000
 03854,0.00036590,-0.00157844,-0.00162435,-0.00968943,0.00523965,-0.000
 56647,0.33145891,0.00000266,-0.00000145,0.00000021,-0.00000177,0.00000
 271,-0.00000239,0.00000149,-0.00000218,0.00000182,-0.00000163,0.000002
 98,-0.00000288,0.00000149,-0.00000217,0.00000174,-0.00000341,-0.000001
 24,0.00000275,0.00000322,0.00000036,-0.00000194,-0.00000160,0.00000310
 ,-0.00000279,0.00000171,-0.00000268,0.00000224,-0.00000148,0.00000342,
 -0.00000318,0.00000133,-0.00000282,0.00000257,-0.00000120,0.00000380,-
 0.00000372,0.00000094,-0.00000306,0.00000299,-0.00000082,0.00000419,-0
 .00000432,0.00000057,-0.00000331,0.00000341,-0.00000052,0.00000454,-0.
 00000496,0.00000028,-0.00000322,0.00000343,-0.00000045,0.00000692,-0.0
 0000756,0.00000084,-0.00000446,0.00000442,-0.00000582,-0.00000487,0.00
 000784,0.00000500,0.00000268,-0.00000543,-0.00000177,0.00000834,-0.000
 00892,0.00000239,-0.00000662,0.00000627,-0.00000865,-0.00000522,0.0000
 0988,0.00000818,0.00000325,-0.00000811,-0.00000382,0.00001116,-0.00001
 131,0.00000527,-0.00000971,0.00000856,-0.00001099,-0.00000474,0.000007
 09,0.00000990,0.00000164,-0.00000660,-0.00000854,0.00000168,0.00001774
 ,0.00001080,0.00000101,-0.00001186,-0.00002726,-0.00004677,-0.00001113
 ,0.00002195,0.00001116,-0.00001354,0.00005364,0.00013697,0.00018176,0.
 00007583,-0.00003106,-0.00008859,-0.00031173,-0.00101317,-0.00037807,0
 .00102859,0.00018953,-0.00045640,0.00226478,0.00415977,0.00801907,0.02
 153648,-0.00192806,-0.00302201,0.08247817,-0.06658708,0.00318612,-0.00
 000011,0.00000006,0.00000009,0.00000010,-0.00000041,0.00000053,-0.0000
 0004,-0.00000006,0.00000017,0.00000049,-0.00000060,0.00000059,-0.00000
 031,0.00000026,-0.00000002,0.00000080,0.00000008,-0.00000032,-0.000000
 32,0.00000009,0.00000015,0.00000027,-0.00000049,0.00000046,-0.00000003
 ,-0.00000009,0.00000013,0.00000028,-0.00000068,0.00000063,0.00000002,-
 0.00000018,0.00000021,0.00000030,-0.00000078,0.00000072,0.00000004,-0.
 00000024,0.00000026,0.00000035,-0.00000088,0.00000084,0.00000005,-0.00
 000030,0.00000035,0.00000041,-0.00000100,0.00000100,0.00000001,-0.0000
 0033,0.00000046,0.00000095,-0.00000134,0.00000118,-0.00000051,0.000000
 47,-0.00000020,0.00000166,0.00000023,-0.00000085,-0.00000060,0.0000000
 6,0.00000048,0.00000126,-0.00000133,0.00000112,-0.00000048,0.00000059,
 -0.00000026,0.00000209,0.00000026,-0.00000101,-0.00000076,0.00000011,0
 .00000070,0.00000176,-0.00000173,0.00000152,-0.00000056,0.00000078,-0.
 00000046,0.00000233,0.00000074,-0.00000150,0.00000088,0.00000138,-0.00
 000044,0.00000312,0.00000129,-0.00000240,0.00000038,-0.00000043,-0.000
 00240,0.00000440,0.00000226,-0.00000277,0.00000564,0.00001343,0.000008
 42,0.00000532,0.00000274,-0.00000515,-0.00001731,-0.00004024,-0.000032
 80,0.00000889,0.00002226,-0.00000110,-0.00001920,0.00008259,0.00008542
 ,0.00009358,-0.00011793,-0.00024962,-0.00177733,-0.00328294,-0.0035981
 2,-0.01161346,0.00568634,0.00152859,-0.09382882,0.06274056,-0.00000174
 ,0.00000071,-0.00000026,0.00000120,-0.00000175,0.00000136,-0.00000084,
 0.00000141,-0.00000122,0.00000092,-0.00000201,0.00000170,-0.00000092,0
 .00000134,-0.00000118,0.00000202,0.00000078,-0.00000189,-0.00000190,-0
 .00000026,0.00000103,0.00000084,-0.00000196,0.00000181,-0.00000083,0.0
 0000170,-0.00000155,0.00000073,-0.00000221,0.00000215,-0.00000066,0.00
 000184,-0.00000177,0.00000055,-0.00000247,0.00000253,-0.00000048,0.000
 00201,-0.00000203,0.00000035,-0.00000275,0.00000292,-0.00000023,0.0000
 0220,-0.00000237,0.00000013,-0.00000304,0.00000332,0.00000013,0.000002
 20,-0.00000255,-0.00000013,-0.00000454,0.00000496,-0.00000033,0.000002
 36,-0.00000254,0.00000316,0.00000357,-0.00000549,-0.00000240,-0.000001
 66,0.00000272,0.00000009,-0.00000551,0.00000610,-0.00000101,0.00000331
 ,-0.00000345,0.00000444,0.00000422,-0.00000736,-0.00000352,-0.00000206
 ,0.00000377,-0.00000001,-0.00000696,0.00000877,-0.00000155,0.00000359,
 -0.00000416,0.00000308,0.00000357,-0.00000924,-0.00000315,-0.00000493,
 0.00000791,0.00000439,0.00001446,-0.00000713,-0.00000299,-0.00001139,0
 .00001113,-0.00001296,-0.00001336,-0.00004408,-0.00000280,-0.00001394,
 0.00002740,0.00004492,0.00018094,0.00006286,-0.00007129,-0.00006775,0.
 00004474,-0.00031869,-0.00040048,-0.00079954,-0.00091402,-0.00001278,0
 .00068845,0.00181278,0.00739609,0.00165481,-0.02048627,0.00669889,0.00
 596941,0.03801705,0.00185445,-0.05197182,0.00000008,0.00000002,0.00000
 004,-0.00000006,0.00000032,-0.00000025,0.00000005,0.00000008,-0.000000
 03,-0.00000028,0.00000044,-0.00000026,0.00000018,-0.00000010,0.0000001
 4,-0.00000053,-0.00000002,0.00000036,0.00000023,-0.00000004,0.00000004
 ,-0.00000017,0.00000033,-0.00000027,0.00000002,0.00000008,-0.00000009,
 -0.00000018,0.00000042,-0.00000040,-0.00000001,0.00000012,-0.00000012,
 -0.00000019,0.00000050,-0.00000049,-0.00000002,0.00000015,-0.00000016,
 -0.00000022,0.00000059,-0.00000056,-0.00000002,0.00000019,-0.00000018,
 -0.00000026,0.00000069,-0.00000063,0.00000001,0.00000024,-0.00000024,-
 0.00000061,0.00000087,-0.00000064,0.00000036,-0.00000023,0.00000025,-0
 .00000109,0.,0.00000063,0.00000048,0.,-0.00000009,-0.00000084,0.000000
 93,-0.00000058,0.00000045,-0.00000027,0.00000033,-0.00000146,0.0000000
 6,0.00000083,0.00000075,0.00000012,-0.00000013,-0.00000122,0.00000132,
 -0.00000077,0.00000052,-0.00000044,0.00000044,-0.00000158,-0.00000013,
 0.00000133,-0.00000007,0.00000017,0.00000114,-0.00000221,-0.00000036,0
 .00000210,-0.00000088,-0.00000158,0.00000012,-0.00000311,-0.00000001,0
 .00000328,0.00000369,0.00000917,0.00000949,-0.00000494,-0.00000126,0.0
 0000462,-0.00001188,-0.00003310,-0.00002754,-0.00000350,0.00000587,0.0
 0001944,0.00009122,0.00003880,0.00005260,-0.00041041,-0.00010150,0.000
 04046,-0.00138045,-0.00369532,-0.00172356,0.02008937,-0.00669633,0.000
 71207,-0.03642894,-0.00514868,0.04526690,-0.28207852,0.11812537,-0.023
 41021,-0.01694050,0.01256474,-0.00495692,0.00002027,-0.00014741,0.0052
 1599,-0.00080233,0.00070107,-0.00045007,-0.00014650,-0.00040664,0.0000
 3323,0.00000535,0.00008030,-0.00004601,0.00002980,-0.00004330,0.000049
 19,-0.00002934,0.00000994,-0.00000376,0.00002126,-0.00001463,0.0000208
 1,-0.00001523,0.00001309,-0.00000953,0.00001166,-0.00001929,0.00001525
 ,-0.00001123,0.00001137,-0.00000832,0.00000936,-0.00001552,0.00001313,
 -0.00000921,0.00000960,-0.00000691,0.00000815,-0.00001272,0.00001054,-
 0.00000831,0.00000824,-0.00000570,0.00000785,-0.00001051,0.00000832,-0
 .00001315,-0.00000425,0.00001045,0.00001305,0.00000560,-0.00001215,-0.
 00000466,0.00001042,-0.00001001,0.00000395,-0.00001138,0.00001133,-0.0
 0000783,-0.00000352,0.00000782,0.00000865,0.00000554,-0.00001074,-0.00
 000219,0.00000632,-0.00000680,0.00000123,-0.00000865,0.00001005,-0.000
 00412,-0.00000283,0.00000550,0.00000619,0.00000555,-0.00001000,-0.0000
 0285,-0.00000283,0.00000480,0.00000435,0.00000398,-0.00000693,-0.00000
 331,-0.00000276,0.00000499,0.00000449,0.00000330,-0.00000624,-0.000003
 71,-0.00000215,0.00000444,0.00000463,0.00000269,-0.00000555,-0.0000038
 7,-0.00000170,0.00000398,0.00000463,0.00000227,-0.00000508,-0.00000394
 ,-0.00000146,0.00000369,0.00000471,0.00000192,-0.00000468,-0.00000448,
 -0.00000106,0.00000349,0.00000506,0.00000129,-0.00000406,-0.00000480,0
 .00000129,0.00000065,0.00102668,-0.00077177,0.00143761,0.00038420,-0.0
 0168602,-0.00127545,0.00019169,-0.00006868,-0.00013609,0.00002468,-0.0
 0000981,0.00008346,-0.00011866,0.00004308,0.00001772,0.00000660,-0.000
 03154,0.00000089,-0.00001055,0.00001167,-0.00000735,0.00000204,-0.0000
 0301,-0.00001364,-0.00000353,0.00000660,-0.00000507,0.00000035,0.00000
 280,-0.00000174,-0.00000185,0.00000466,-0.00000403,-0.00000007,0.00000
 192,-0.00000157,-0.00000146,0.00000372,-0.00000334,-0.00000012,0.00000
 148,-0.00000140,-0.00000128,0.00000299,-0.00000267,0.00000003,0.000001
 06,-0.00000111,-0.00000125,0.00000218,-0.00000183,0.00000108,0.0000000
 4,-0.00000044,-0.00000297,-0.00000031,0.00000175,0.00000066,-0.0000007
 6,0.00000064,-0.00000154,0.00000173,-0.00000124,0.00000097,-0.00000008
 ,-0.00000026,-0.00000231,-0.00000024,0.00000138,0.00000055,-0.00000058
 ,0.00000042,-0.00000127,0.00000146,-0.00000110,0.00000092,-0.00000017,
 -0.00000013,-0.00000215,-0.00000043,0.00000159,-0.00000032,-0.00000035
 ,0.00000057,-0.00000130,-0.00000058,0.00000134,-0.00000030,-0.00000024
 ,0.00000046,-0.00000113,-0.00000052,0.00000119,-0.00000023,-0.00000020
 ,0.00000036,-0.00000098,-0.00000048,0.00000106,-0.00000018,-0.00000016
 ,0.00000030,-0.00000087,-0.00000044,0.00000098,-0.00000014,-0.00000011
 ,0.00000023,-0.00000081,-0.00000042,0.00000092,-0.00000007,-0.00000006
 ,0.00000013,-0.00000052,-0.00000038,0.00000075,0.00000017,-0.00000009,
 0.00000008,-0.00000025,0.00000039,-0.00000032,0.29844091,0.12098632,-0
 .10155939,0.02670368,-0.00836766,0.00710364,0.00034794,0.00114945,0.00
 564242,0.00611981,-0.00022586,0.00033864,-0.00030817,-0.00035352,-0.00
 055621,-0.00047954,0.00003488,-0.00000922,0.00011555,-0.00002518,0.000
 02308,0.00001977,0.00002040,-0.00000227,-0.00002013,-0.00001129,0.0000
 1655,0.00002143,0.00001195,-0.00000011,-0.00000895,-0.00001100,-0.0000
 0127,0.00000290,0.00000737,0.00000023,-0.00000461,-0.00000645,0.000000
 24,0.00000205,0.00000467,0.00000010,-0.00000252,-0.00000411,0.00000032
 ,0.00000099,0.00000288,-0.00000010,-0.00000146,-0.00000268,0.00000036,
 0.00000061,0.00000224,0.00000036,-0.00000165,-0.00000178,0.00000049,0.
 00000006,0.00000092,-0.00000166,0.00000129,-0.00000113,0.00000063,-0.0
 0000038,0.00000112,0.00000029,-0.00000098,-0.00000105,0.,0.00000040,0.
 00000045,-0.00000093,0.00000077,-0.00000055,0.00000051,-0.00000047,0.0
 0000052,0.00000017,-0.00000055,-0.00000065,-0.00000025,0.00000054,0.00
 000032,-0.00000006,-0.00000008,-0.00000043,-0.00000019,0.00000039,0.00
 000021,0.00000013,-0.00000026,-0.00000032,-0.00000022,0.00000041,0.000
 00020,0.00000015,-0.00000026,-0.00000030,-0.00000020,0.00000041,0.0000
 0034,0.00000006,-0.00000026,-0.00000048,-0.00000017,0.00000036,0.00000
 032,0.00000008,-0.00000031,-0.00000042,-0.00000021,0.00000040,0.000000
 40,0.00000006,-0.00000031,-0.00000041,-0.00000024,0.00000041,0.0000004
 0,-0.00000015,-0.00000023,0.01694819,-0.00503368,0.00085841,-0.0014721
 7,-0.00295717,-0.00377027,-0.00037269,0.00004990,-0.00022643,0.0000959
 1,0.00009329,0.00006648,-0.00002177,0.00002607,0.00001671,-0.00000949,
 -0.00002970,-0.00004381,-0.00000402,0.00000379,0.00000057,-0.00000641,
 -0.00001861,-0.00001799,-0.00000068,0.00000149,0.00000074,0.00000084,0
 .00000166,0.00000172,-0.00000009,0.00000050,0.00000047,0.00000030,0.00
 000046,0.00000073,-0.00000001,0.00000016,0.00000032,0.00000013,0.00000
 007,0.00000039,0.00000003,0.00000005,0.00000024,0.00000008,-0.00000002
 ,0.00000027,0.00000005,0.,0.00000020,0.00000004,0.00000009,0.00000011,
 0.00000014,0.00000018,-0.00000010,0.00000009,0.00000014,0.00000002,0.,
 0.00000001,0.00000014,-0.00000001,0.00000009,0.00000003,0.00000015,0.0
 0000010,-0.00000009,0.00000003,0.00000010,0.,0.00000005,0.,0.00000007,
 -0.00000003,0.00000011,-0.00000003,0.00000018,0.00000011,-0.00000016,0
 .00000006,0.00000006,-0.00000006,0.00000010,0.00000006,-0.00000009,0.0
 0000004,0.00000003,-0.00000004,0.00000010,0.00000005,-0.00000011,0.000
 00002,0.00000001,-0.00000004,0.00000008,0.00000003,-0.00000010,0.00000
 004,0.00000004,-0.00000005,0.00000009,0.00000006,-0.00000006,0.0000000
 2,0.00000005,0.,0.00000009,0.00000008,-0.00000008,0.00000002,0.0000000
 5,0.,0.00000004,0.00000009,-0.00000006,-0.00000001,0.00000008,0.000000
 02,-0.00000009,0.00000005,0.00000008,-0.12836957,0.09686440,-0.0266561
 2,0.02796212,-0.05100210,0.01878272,-0.00886595,0.00594534,0.00374451,
 0.00669114,0.00224949,0.00059943,-0.00071500,0.00052558,-0.00002650,-0
 .00045919,-0.00058460,0.00000558,0.00009623,-0.00000470,0.00003013,0.0
 0002807,-0.00001361,-0.00001569,-0.00001625,0.00001303,0.00001701,0.00
 002308,-0.00000244,-0.00000826,-0.00000964,0.00001100,0.00000601,0.000
 00677,-0.00001310,-0.00000383,-0.00000649,0.00000794,0.00000296,0.0000
 0617,-0.00000865,-0.00000136,-0.00000478,0.00000562,0.00000091,0.00000
 488,-0.00000627,0.00000028,-0.00000389,0.00000396,-0.00000048,0.000004
 14,-0.00000458,0.00000317,0.00000124,-0.00000304,-0.00000385,-0.000003
 33,0.00000532,0.00000086,-0.00000294,0.00000286,-0.00000037,0.00000425
 ,-0.00000493,0.00000217,0.00000117,-0.00000255,-0.00000289,-0.00000252
 ,0.00000428,0.00000053,-0.00000204,0.00000216,-0.00000006,0.00000322,-
 0.00000405,0.00000124,0.00000101,-0.00000194,-0.00000209,-0.00000232,0
 .00000382,0.00000093,0.00000133,-0.00000208,-0.00000150,-0.00000160,0.
 00000261,0.00000126,0.00000107,-0.00000193,-0.00000165,-0.00000122,0.0
 0000230,0.00000144,0.00000079,-0.00000166,-0.00000171,-0.00000095,0.00
 000201,0.00000136,0.00000063,-0.00000145,-0.00000161,-0.00000085,0.000
 00175,0.00000137,0.00000053,-0.00000137,-0.00000156,-0.00000073,0.0000
 0160,0.00000149,0.00000042,-0.00000127,-0.00000185,-0.00000038,0.00000
 131,0.00000164,-0.00000063,-0.00000023,-0.01865526,0.00866038,0.000698
 19,-0.00151813,-0.00367656,-0.00201630,0.00020877,-0.00036043,0.000022
 46,-0.00003642,0.00011269,0.00007722,0.00008884,-0.00001109,0.00000596
 ,-0.00002364,-0.00003418,-0.00002323,0.00001038,-0.00000642,0.00000530
 ,-0.00000964,-0.00001923,-0.00001100,0.00000312,-0.00000252,0.00000331
 ,0.00000044,0.00000081,0.00000235,0.00000132,-0.00000167,0.00000217,0.
 00000023,0.,0.00000111,0.00000087,-0.00000136,0.00000157,0.00000011,-0
 .00000021,0.00000064,0.00000066,-0.00000109,0.00000121,0.00000001,-0.0
 0000017,0.00000045,0.00000058,-0.00000075,0.00000078,-0.00000044,0.000
 00010,0.00000029,0.00000123,0.00000014,-0.00000055,-0.00000028,0.00000
 041,-0.00000015,0.00000070,-0.00000068,0.00000061,-0.00000037,0.000000
 05,0.00000021,0.00000094,0.00000009,-0.00000045,-0.00000023,0.00000030
 ,-0.00000010,0.00000056,-0.00000056,0.00000050,-0.00000034,0.00000005,
 0.00000017,0.00000080,0.00000014,-0.00000050,0.00000009,0.00000013,-0.
 00000015,0.00000048,0.00000022,-0.00000047,0.00000009,0.00000009,-0.00
 000014,0.00000039,0.00000018,-0.00000040,0.00000008,0.00000006,-0.0000
 0012,0.00000033,0.00000016,-0.00000037,0.00000005,0.00000006,-0.000000
 07,0.00000032,0.00000017,-0.00000031,0.00000003,0.00000004,0.,0.000000
 27,0.00000014,-0.00000026,0.00000004,0.00000003,0.,0.00000023,0.000000
 15,-0.00000023,-0.00000003,0.00000006,0.00000003,0.00000021,-0.0000001
 3,0.00000014,0.02344698,-0.02939720,0.04410470\\-0.00000103,-0.0000004
 8,0.00000082,-0.00000022,0.00000040,-0.00000037,0.00000177,-0.00000071
 ,-0.00000036,-0.00000099,0.00000024,0.00000029,0.00000163,-0.00000109,
 -0.00000002,-0.00000110,0.00000071,-0.00000032,0.00000014,-0.00000038,
 -0.00000007,-0.00000136,0.00000033,-0.00000013,-0.00000041,-0.00000097
 ,0.00000089,0.00000022,0.00000038,-0.00000092,-0.00000087,-0.00000083,
 0.00000088,0.00000067,0.00000039,-0.00000116,-0.00000093,-0.00000083,0
 .00000091,0.00000094,0.00000043,-0.00000135,-0.00000080,-0.00000083,0.
 00000082,0.00000100,0.00000048,-0.00000137,-0.00000029,-0.00000078,0.0
 0000047,0.00000128,0.00000004,-0.00000049,-0.00000023,-0.00000042,-0.0
 0000013,0.00000062,-0.00000018,-0.00000049,-0.00000068,0.00000058,-0.0
 0000066,-0.00000053,-0.00000083,0.00000038,0.00000007,-0.00000042,0.00
 000063,0.00000088,-0.00000017,-0.00000087,-0.00000056,0.00000036,-0.00
 000008,0.00000002,-0.00000016,-0.00000003,-0.00000072,0.00000082,-0.00
 000050,-0.00000037,-0.00000025,0.00000072,0.00000003,0.00000062,-0.000
 00098,-0.00000042,-0.00000038,0.00000073,0.00000054,0.00000023,-0.0000
 0053,-0.00000082,-0.00000004,0.00000042,0.00000115,-0.00000035,-0.0000
 0010,-0.00000128,0.00000041,0.00000008,0.00000155,-0.00000074,0.000000
 15,-0.00000151,0.00000058,-0.00000005,0.00000154,-0.00000063,-0.000000
 02,-0.00000122,0.00000044,-0.00000007,0.00000037,-0.00000004,-0.000000
 24,0.00000040,-0.00000094,0.00000080,0.00000034,0.00000001,-0.00000032
 ,0.00000017,-0.00000019,0.00000012,-0.00000079,0.00000013,-0.00000012,
 0.00000007,-0.00000009,0.00000027,-0.00000044,0.00000012,-0.00000012,0
 .00000030,0.00000003,0.00000011,0.,0.00000018,-0.00000016,0.00000071,-
 0.00000008,0.00000018,-0.00000007,0.00000042,-0.00000020,0.00000027,-0
 .00000003,0.00000030,-0.00000012,0.00000038,-0.00000003,0.00000024,0.0
 0000004,0.00000032,-0.00000011,0.00000038,0.00000005,0.00000025,0.0000
 0006,0.00000040,-0.00000012,0.00000046,0.00000006,0.00000023,0.0000000
 3,0.00000055,-0.00000026,0.00000063,0.00000012,0.00000002,0.00000011,0
 .00000048,-0.00000014,0.00000011,0.00000007,0.00000034,0.00000014,0.00
 000010,0.00000008,0.00000056,0.00000032,0.00000040,0.00000043,0.000000
 42,0.,0.00000070,0.00000047,0.00000006,0.00000001,-0.00000010,-0.00000
 026,0.00000005,-0.00000010,-0.00000001,-0.00000013,-0.00000005,0.,-0.0
 0000008,0.00000027,0.00000056,0.00000027,0.00000007,-0.00000025,0.,0.0
 0000030,0.00000037,0.,-0.00000017,-0.00000032,0.00000006,0.00000017,0.
 00000041,-0.00000007,-0.00000015,-0.00000042,0.00000010,0.00000010,0.0
 0000049,-0.00000013,-0.00000018,-0.00000053,0.00000013,0.00000008,0.00
 000053,-0.00000014,-0.00000024,-0.00000058,0.00000006,0.00000015,0.000
 00053,-0.00000019,-0.00000022,-0.00000035,0.00000005,0.00000002,-0.000
 00022,0.00000021,-0.00000037,0.,0.00000015,-0.00000034,0.00000014,0.00
 000013,-0.00000037\\\@


 Sacred cows make the best hamburger.
                               -- Mark Twain
 Job cpu time:       0 days  3 hours 20 minutes 56.9 seconds.
 Elapsed time:       0 days  3 hours 20 minutes 58.0 seconds.
 File lengths (MBytes):  RWF=   4906 Int=      0 D2E=      0 Chk=     56 Scr=      1
 Normal termination of Gaussian 16 at Mon Oct 30 07:11:44 2023.
