 Entering Gaussian System, Link 0=g16
 Input=./com/22.com
 Output=./log/22.log
 Initial command:
 /home/shohei/gaussian/g16/l1.exe "/home/shohei/gaussian/scratch/Gau-26383.inp" -scrdir="/home/shohei/gaussian/scratch/"
 Entering Link 1 = /home/shohei/gaussian/g16/l1.exe PID=     26385.
  
 Copyright (c) 1988-2017, Gaussian, Inc.  All Rights Reserved.
  
 This is part of the Gaussian(R) 16 program.  It is based on
 the Gaussian(R) 09 system (copyright 2009, Gaussian, Inc.),
 the Gaussian(R) 03 system (copyright 2003, Gaussian, Inc.),
 the Gaussian(R) 98 system (copyright 1998, Gaussian, Inc.),
 the Gaussian(R) 94 system (copyright 1995, Gaussian, Inc.),
 the Gaussian 92(TM) system (copyright 1992, Gaussian, Inc.),
 the Gaussian 90(TM) system (copyright 1990, Gaussian, Inc.),
 the Gaussian 88(TM) system (copyright 1988, Gaussian, Inc.),
 the Gaussian 86(TM) system (copyright 1986, Carnegie Mellon
 University), and the Gaussian 82(TM) system (copyright 1983,
 Carnegie Mellon University). Gaussian is a federally registered
 trademark of Gaussian, Inc.
  
 This software contains proprietary and confidential information,
 including trade secrets, belonging to Gaussian, Inc.
  
 This software is provided under written license and may be
 used, copied, transmitted, or stored only in accord with that
 written license.
  
 The following legend is applicable only to US Government
 contracts under FAR:
  
                    RESTRICTED RIGHTS LEGEND
  
 Use, reproduction and disclosure by the US Government is
 subject to restrictions as set forth in subparagraphs (a)
 and (c) of the Commercial Computer Software - Restricted
 Rights clause in FAR 52.227-19.
  
 Gaussian, Inc.
 340 Quinnipiac St., Bldg. 40, Wallingford CT 06492
  
  
 ---------------------------------------------------------------
 Warning -- This program may not be used in any manner that
 competes with the business of Gaussian, Inc. or will provide
 assistance to any competitor of Gaussian, Inc.  The licensee
 of this program is prohibited from giving any competitor of
 Gaussian, Inc. access to this program.  By using this program,
 the user acknowledges that Gaussian, Inc. is engaged in the
 business of creating and licensing software in the field of
 computational chemistry and represents and warrants to the
 licensee that it is not a competitor of Gaussian, Inc. and that
 it will not use this program in any manner prohibited above.
 ---------------------------------------------------------------
  

 Cite this work as:
 Gaussian 16, Revision B.01,
 M. J. Frisch, G. W. Trucks, H. B. Schlegel, G. E. Scuseria, 
 M. A. Robb, J. R. Cheeseman, G. Scalmani, V. Barone, 
 G. A. Petersson, H. Nakatsuji, X. Li, M. Caricato, A. V. Marenich, 
 J. Bloino, B. G. Janesko, R. Gomperts, B. Mennucci, H. P. Hratchian, 
 J. V. Ortiz, A. F. Izmaylov, J. L. Sonnenberg, D. Williams-Young, 
 F. Ding, F. Lipparini, F. Egidi, J. Goings, B. Peng, A. Petrone, 
 T. Henderson, D. Ranasinghe, V. G. Zakrzewski, J. Gao, N. Rega, 
 G. Zheng, W. Liang, M. Hada, M. Ehara, K. Toyota, R. Fukuda, 
 J. Hasegawa, M. Ishida, T. Nakajima, Y. Honda, O. Kitao, H. Nakai, 
 T. Vreven, K. Throssell, J. A. Montgomery, Jr., J. E. Peralta, 
 F. Ogliaro, M. J. Bearpark, J. J. Heyd, E. N. Brothers, K. N. Kudin, 
 V. N. Staroverov, T. A. Keith, R. Kobayashi, J. Normand, 
 K. Raghavachari, A. P. Rendell, J. C. Burant, S. S. Iyengar, 
 J. Tomasi, M. Cossi, J. M. Millam, M. Klene, C. Adamo, R. Cammi, 
 J. W. Ochterski, R. L. Martin, K. Morokuma, O. Farkas, 
 J. B. Foresman, and D. J. Fox, Gaussian, Inc., Wallingford CT, 2016.
 
 ******************************************
 Gaussian 16:  EM64L-G16RevB.01 20-Dec-2017
                27-Oct-2023 
 ******************************************
 %chk=./chk/22.chk
 ---------------------------
 # B3LYP/6-31G(d,p) OPT FREQ
 ---------------------------
 1/18=20,19=15,26=3,38=1/1,3;
 2/9=110,12=2,17=6,18=5,40=1/2;
 3/5=1,6=6,7=101,11=2,25=1,30=1,71=1,74=-5/1,2,3;
 4//1;
 5/5=2,38=5/2;
 6/7=2,8=2,9=2,10=2,28=1/1;
 7//1,2,3,16;
 1/18=20,19=15,26=3/3(2);
 2/9=110/2;
 99//99;
 2/9=110/2;
 3/5=1,6=6,7=101,11=2,25=1,30=1,71=1,74=-5/1,2,3;
 4/5=5,16=3,69=1/1;
 5/5=2,38=5/2;
 7//1,2,3,16;
 1/18=20,19=15,26=3/3(-5);
 2/9=110/2;
 6/7=2,8=2,9=2,10=2,19=2,28=1/1;
 99/9=1/99;
 ------
 22poly
 ------
 Symbolic Z-matrix:
 Charge =  0 Multiplicity = 1
 C                    -20.24308   4.53347  -0.02201 
 C                    -19.1233   4.96045  -0.621 
 C                    -17.74146   4.55692  -0.24765 
 C                    -17.4354   3.70566   0.7538 
 C                    -16.0552   3.29376   1.12767 
 C                    -14.92992   3.71129   0.52053 
 C                    -13.60572   3.22414   0.967 
 C                    -12.48434   3.626     0.34251 
 C                    -11.10495   3.18673   0.68469 
 C                    -10.78947   2.34137   1.68869 
 C                    -9.4105    1.87934   2.00726 
 C                    -8.30293   2.22623   1.3278 
 C                    -6.98158   1.67559   1.69988 
 C                    -5.89025   1.9821    0.98575 
 C                    -4.57029   1.40142   1.30993 
 C                    -3.50574   1.67058   0.54274 
 C                    -2.18649   1.06001   0.81002 
 C                    -1.15723   1.29154  -0.01545 
 C                     0.16032   0.65358   0.18919 
 C                     1.14679   0.85188  -0.69545 
 C                     2.46309   0.192    -0.55747 
 C                     3.39942   0.37145  -1.50552 
 C                     4.74517  -0.25648  -1.52687 
 C                     5.23959  -1.07582  -0.57468 
 C                     6.58347  -1.72187  -0.62866 
 C                     7.44523  -1.60711  -1.66176 
 C                     8.77948  -2.25588  -1.7514 
 C                     9.3448   -3.02563  -0.79726 
 C                     10.68493  -3.67071  -0.91657 
 C                     11.47096  -3.60602  -2.01251 
 C                     12.8074  -4.23967  -2.14933 
 C                     13.44685  -4.93966  -1.19638 
 C                     14.78528  -5.50412  -1.47493 
 C                     15.47611  -6.17615  -0.54467 
 C                     16.81819  -6.71132  -0.85742 
 C                     17.54922  -7.3546    0.06202 
 C                     18.89504  -7.86424  -0.27608 
 C                     19.6575  -8.48122   0.6358 
 C                     21.00612  -8.97104   0.28022 
 C                     21.79013  -9.56761   1.18745 
 C                     23.14049  -10.04463   0.82152 
 C                     23.93659  -10.6285   1.72653 
 C                     25.28715  -11.0991   1.35558 
 C                     26.08838  -11.67634   2.25376 
 H                    -20.24016   3.8394    0.80809 
 H                    -19.22685   5.65668  -1.44796 
 H                    -16.95785   4.99939  -0.84794 
 H                    -18.22264   3.26518   1.35147 
 H                    -15.97194   2.59545   1.95625 
 H                    -14.96461   4.40406  -0.31112 
 H                    -13.56857   2.53021   1.79769 
 H                    -12.57192   4.31735  -0.49156 
 H                    -10.32965   3.59291   0.04928 
 H                    -11.56588   1.93743   2.32473 
 H                    -9.3143    1.19439   2.84546 
 H                    -8.35143   2.89711   0.47934 
 H                    -6.90212   0.99637   2.54539 
 H                    -5.97727   2.65114   0.13245 
 H                    -4.47235   0.73013   2.15973 
 H                    -3.61655   2.33099  -0.3146 
 H                    -2.06201   0.39809   1.66363 
 H                    -1.2977    1.9428   -0.87549 
 H                     0.31713   0.00096   1.04456 
 H                     0.97019   1.49546  -1.55469 
 H                     2.63967  -0.44758   0.29925 
 H                     3.1656    1.0127   -2.35161 
 H                     5.33279  -0.0124   -2.40029 
 H                     4.64613  -1.30767   0.3007 
 H                     6.84262  -2.32821   0.22956 
 H                     7.18459  -1.01468  -2.52709 
 H                     9.30152  -2.0632   -2.67783 
 H                     8.82308  -3.2068    0.13363 
 H                     11.014   -4.22529  -0.04701 
 H                     11.14639  -3.06477  -2.88956 
 H                     13.29587  -4.10582  -3.11131 
 H                     13.00829  -5.0951   -0.21762 
 H                     15.22126  -5.35909  -2.46121 
 H                     15.05582  -6.32139   0.44769 
 H                     17.22174  -6.56802  -1.85758 
 H                     17.15762  -7.49593   1.06667 
 H                     19.2736  -7.72522  -1.2865 
 H                     19.28778  -8.6178    1.64941 
 H                     21.36695  -8.83675  -0.73724 
 H                     21.43489  -9.69979   2.20685 
 H                     23.49089  -9.91428  -0.20005 
 H                     23.58972  -10.75787   2.74921 
 H                     25.64277  -10.9761   0.33596 
 H                     25.77034  -11.81658   3.28261 
 H                     27.07705  -12.01409   1.96005 
 H                    -21.20536   4.89052  -0.37479 
 

 GradGradGradGradGradGradGradGradGradGradGradGradGradGradGradGradGradGrad
 Berny optimization.
 Initialization pass.
                           ----------------------------
                           !    Initial Parameters    !
                           ! (Angstroms and Degrees)  !
 --------------------------                            --------------------------
 ! Name  Definition              Value          Derivative Info.                !
 --------------------------------------------------------------------------------
 ! R1    R(1,2)                  1.3398         estimate D2E/DX2                !
 ! R2    R(1,45)                 1.082          estimate D2E/DX2                !
 ! R3    R(1,90)                 1.0853         estimate D2E/DX2                !
 ! R4    R(2,3)                  1.4872         estimate D2E/DX2                !
 ! R5    R(2,46)                 1.086          estimate D2E/DX2                !
 ! R6    R(3,4)                  1.3495         estimate D2E/DX2                !
 ! R7    R(3,47)                 1.0817         estimate D2E/DX2                !
 ! R8    R(4,5)                  1.4881         estimate D2E/DX2                !
 ! R9    R(4,48)                 1.0821         estimate D2E/DX2                !
 ! R10   R(5,6)                  1.3451         estimate D2E/DX2                !
 ! R11   R(5,49)                 1.0868         estimate D2E/DX2                !
 ! R12   R(6,7)                  1.4799         estimate D2E/DX2                !
 ! R13   R(6,50)                 1.0829         estimate D2E/DX2                !
 ! R14   R(7,8)                  1.345          estimate D2E/DX2                !
 ! R15   R(7,51)                 1.083          estimate D2E/DX2                !
 ! R16   R(8,9)                  1.4875         estimate D2E/DX2                !
 ! R17   R(8,52)                 1.0869         estimate D2E/DX2                !
 ! R18   R(9,10)                 1.3499         estimate D2E/DX2                !
 ! R19   R(9,53)                 1.0816         estimate D2E/DX2                !
 ! R20   R(10,11)                1.4888         estimate D2E/DX2                !
 ! R21   R(10,54)                1.0819         estimate D2E/DX2                !
 ! R22   R(11,12)                1.3449         estimate D2E/DX2                !
 ! R23   R(11,55)                1.0867         estimate D2E/DX2                !
 ! R24   R(12,13)                1.4791         estimate D2E/DX2                !
 ! R25   R(12,56)                1.0827         estimate D2E/DX2                !
 ! R26   R(13,14)                1.3398         estimate D2E/DX2                !
 ! R27   R(13,57)                1.0875         estimate D2E/DX2                !
 ! R28   R(14,15)                1.478          estimate D2E/DX2                !
 ! R29   R(14,58)                1.0878         estimate D2E/DX2                !
 ! R30   R(15,16)                1.3395         estimate D2E/DX2                !
 ! R31   R(15,59)                1.0874         estimate D2E/DX2                !
 ! R32   R(16,17)                1.4781         estimate D2E/DX2                !
 ! R33   R(16,60)                1.0879         estimate D2E/DX2                !
 ! R34   R(17,18)                1.3396         estimate D2E/DX2                !
 ! R35   R(17,61)                1.0873         estimate D2E/DX2                !
 ! R36   R(18,19)                1.4781         estimate D2E/DX2                !
 ! R37   R(18,62)                1.0879         estimate D2E/DX2                !
 ! R38   R(19,20)                1.3398         estimate D2E/DX2                !
 ! R39   R(19,63)                1.0873         estimate D2E/DX2                !
 ! R40   R(20,21)                1.4789         estimate D2E/DX2                !
 ! R41   R(20,64)                1.088          estimate D2E/DX2                !
 ! R42   R(21,22)                1.3445         estimate D2E/DX2                !
 ! R43   R(21,65)                1.0836         estimate D2E/DX2                !
 ! R44   R(22,23)                1.4852         estimate D2E/DX2                !
 ! R45   R(22,66)                1.0871         estimate D2E/DX2                !
 ! R46   R(23,24)                1.35           estimate D2E/DX2                !
 ! R47   R(23,67)                1.0806         estimate D2E/DX2                !
 ! R48   R(24,25)                1.4921         estimate D2E/DX2                !
 ! R49   R(24,68)                1.0827         estimate D2E/DX2                !
 ! R50   R(25,26)                1.3502         estimate D2E/DX2                !
 ! R51   R(25,69)                1.0823         estimate D2E/DX2                !
 ! R52   R(26,27)                1.4863         estimate D2E/DX2                !
 ! R53   R(26,70)                1.0806         estimate D2E/DX2                !
 ! R54   R(27,28)                1.35           estimate D2E/DX2                !
 ! R55   R(27,71)                1.0807         estimate D2E/DX2                !
 ! R56   R(28,29)                1.4921         estimate D2E/DX2                !
 ! R57   R(28,72)                1.0824         estimate D2E/DX2                !
 ! R58   R(29,30)                1.3502         estimate D2E/DX2                !
 ! R59   R(29,73)                1.0826         estimate D2E/DX2                !
 ! R60   R(30,31)                1.4854         estimate D2E/DX2                !
 ! R61   R(30,74)                1.0805         estimate D2E/DX2                !
 ! R62   R(31,32)                1.3443         estimate D2E/DX2                !
 ! R63   R(31,75)                1.0872         estimate D2E/DX2                !
 ! R64   R(32,33)                1.4791         estimate D2E/DX2                !
 ! R65   R(32,76)                1.0837         estimate D2E/DX2                !
 ! R66   R(33,34)                1.3395         estimate D2E/DX2                !
 ! R67   R(33,77)                1.0881         estimate D2E/DX2                !
 ! R68   R(34,35)                1.4783         estimate D2E/DX2                !
 ! R69   R(34,78)                1.0874         estimate D2E/DX2                !
 ! R70   R(35,36)                1.3393         estimate D2E/DX2                !
 ! R71   R(35,79)                1.088          estimate D2E/DX2                !
 ! R72   R(36,37)                1.4783         estimate D2E/DX2                !
 ! R73   R(36,80)                1.0875         estimate D2E/DX2                !
 ! R74   R(37,38)                1.3392         estimate D2E/DX2                !
 ! R75   R(37,81)                1.0879         estimate D2E/DX2                !
 ! R76   R(38,39)                1.4782         estimate D2E/DX2                !
 ! R77   R(38,82)                1.0875         estimate D2E/DX2                !
 ! R78   R(39,40)                1.3393         estimate D2E/DX2                !
 ! R79   R(39,83)                1.0879         estimate D2E/DX2                !
 ! R80   R(40,41)                1.4781         estimate D2E/DX2                !
 ! R81   R(40,84)                1.0876         estimate D2E/DX2                !
 ! R82   R(41,42)                1.3393         estimate D2E/DX2                !
 ! R83   R(41,85)                1.0878         estimate D2E/DX2                !
 ! R84   R(42,43)                1.4775         estimate D2E/DX2                !
 ! R85   R(42,86)                1.0876         estimate D2E/DX2                !
 ! R86   R(43,44)                1.3349         estimate D2E/DX2                !
 ! R87   R(43,87)                1.0868         estimate D2E/DX2                !
 ! R88   R(44,88)                1.086          estimate D2E/DX2                !
 ! R89   R(44,89)                1.0853         estimate D2E/DX2                !
 ! A1    A(2,1,45)             123.0349         estimate D2E/DX2                !
 ! A2    A(2,1,90)             119.3979         estimate D2E/DX2                !
 ! A3    A(45,1,90)            117.5672         estimate D2E/DX2                !
 ! A4    A(1,2,3)              125.3016         estimate D2E/DX2                !
 ! A5    A(1,2,46)             117.7151         estimate D2E/DX2                !
 ! A6    A(3,2,46)             116.9833         estimate D2E/DX2                !
 ! A7    A(2,3,4)              124.6229         estimate D2E/DX2                !
 ! A8    A(2,3,47)             115.0103         estimate D2E/DX2                !
 ! A9    A(4,3,47)             120.3668         estimate D2E/DX2                !
 ! A10   A(3,4,5)              124.8467         estimate D2E/DX2                !
 ! A11   A(3,4,48)             120.1084         estimate D2E/DX2                !
 ! A12   A(5,4,48)             115.0445         estimate D2E/DX2                !
 ! A13   A(4,5,6)              125.2132         estimate D2E/DX2                !
 ! A14   A(4,5,49)             116.1335         estimate D2E/DX2                !
 ! A15   A(6,5,49)             118.6525         estimate D2E/DX2                !
 ! A16   A(5,6,7)              120.678          estimate D2E/DX2                !
 ! A17   A(5,6,50)             121.2258         estimate D2E/DX2                !
 ! A18   A(7,6,50)             118.0942         estimate D2E/DX2                !
 ! A19   A(6,7,8)              120.5032         estimate D2E/DX2                !
 ! A20   A(6,7,51)             118.2291         estimate D2E/DX2                !
 ! A21   A(8,7,51)             121.2636         estimate D2E/DX2                !
 ! A22   A(7,8,9)              125.3164         estimate D2E/DX2                !
 ! A23   A(7,8,52)             118.6323         estimate D2E/DX2                !
 ! A24   A(9,8,52)             116.0457         estimate D2E/DX2                !
 ! A25   A(8,9,10)             124.9419         estimate D2E/DX2                !
 ! A26   A(8,9,53)             114.751          estimate D2E/DX2                !
 ! A27   A(10,9,53)            120.3045         estimate D2E/DX2                !
 ! A28   A(9,10,11)            124.7481         estimate D2E/DX2                !
 ! A29   A(9,10,54)            120.2214         estimate D2E/DX2                !
 ! A30   A(11,10,54)           115.0263         estimate D2E/DX2                !
 ! A31   A(10,11,12)           125.0743         estimate D2E/DX2                !
 ! A32   A(10,11,55)           116.2717         estimate D2E/DX2                !
 ! A33   A(12,11,55)           118.6432         estimate D2E/DX2                !
 ! A34   A(11,12,13)           120.8376         estimate D2E/DX2                !
 ! A35   A(11,12,56)           121.2541         estimate D2E/DX2                !
 ! A36   A(13,12,56)           117.8934         estimate D2E/DX2                !
 ! A37   A(12,13,14)           120.561          estimate D2E/DX2                !
 ! A38   A(12,13,57)           119.5648         estimate D2E/DX2                !
 ! A39   A(14,13,57)           119.8558         estimate D2E/DX2                !
 ! A40   A(13,14,15)           121.377          estimate D2E/DX2                !
 ! A41   A(13,14,58)           119.5825         estimate D2E/DX2                !
 ! A42   A(15,14,58)           119.0203         estimate D2E/DX2                !
 ! A43   A(14,15,16)           120.3429         estimate D2E/DX2                !
 ! A44   A(14,15,59)           119.6296         estimate D2E/DX2                !
 ! A45   A(16,15,59)           120.0045         estimate D2E/DX2                !
 ! A46   A(15,16,17)           121.5178         estimate D2E/DX2                !
 ! A47   A(15,16,60)           119.4983         estimate D2E/DX2                !
 ! A48   A(17,16,60)           118.9608         estimate D2E/DX2                !
 ! A49   A(16,17,18)           120.1969         estimate D2E/DX2                !
 ! A50   A(16,17,61)           119.7112         estimate D2E/DX2                !
 ! A51   A(18,17,61)           120.0674         estimate D2E/DX2                !
 ! A52   A(17,18,19)           121.6676         estimate D2E/DX2                !
 ! A53   A(17,18,62)           119.4335         estimate D2E/DX2                !
 ! A54   A(19,18,62)           118.8761         estimate D2E/DX2                !
 ! A55   A(18,19,20)           120.0675         estimate D2E/DX2                !
 ! A56   A(18,19,63)           119.7714         estimate D2E/DX2                !
 ! A57   A(20,19,63)           120.1387         estimate D2E/DX2                !
 ! A58   A(19,20,21)           121.8503         estimate D2E/DX2                !
 ! A59   A(19,20,64)           119.3076         estimate D2E/DX2                !
 ! A60   A(21,20,64)           118.8231         estimate D2E/DX2                !
 ! A61   A(20,21,22)           119.6371         estimate D2E/DX2                !
 ! A62   A(20,21,65)           118.8261         estimate D2E/DX2                !
 ! A63   A(22,21,65)           121.5192         estimate D2E/DX2                !
 ! A64   A(21,22,23)           125.7838         estimate D2E/DX2                !
 ! A65   A(21,22,66)           118.5384         estimate D2E/DX2                !
 ! A66   A(23,22,66)           115.6651         estimate D2E/DX2                !
 ! A67   A(22,23,24)           125.3327         estimate D2E/DX2                !
 ! A68   A(22,23,67)           114.1322         estimate D2E/DX2                !
 ! A69   A(24,23,67)           120.533          estimate D2E/DX2                !
 ! A70   A(23,24,25)           124.5507         estimate D2E/DX2                !
 ! A71   A(23,24,68)           119.9666         estimate D2E/DX2                !
 ! A72   A(25,24,68)           115.4818         estimate D2E/DX2                !
 ! A73   A(24,25,26)           124.453          estimate D2E/DX2                !
 ! A74   A(24,25,69)           115.4389         estimate D2E/DX2                !
 ! A75   A(26,25,69)           120.1004         estimate D2E/DX2                !
 ! A76   A(25,26,27)           125.5902         estimate D2E/DX2                !
 ! A77   A(25,26,70)           120.3551         estimate D2E/DX2                !
 ! A78   A(27,26,70)           114.0497         estimate D2E/DX2                !
 ! A79   A(26,27,28)           125.603          estimate D2E/DX2                !
 ! A80   A(26,27,71)           114.0482         estimate D2E/DX2                !
 ! A81   A(28,27,71)           120.3487         estimate D2E/DX2                !
 ! A82   A(27,28,29)           124.4786         estimate D2E/DX2                !
 ! A83   A(27,28,72)           120.0956         estimate D2E/DX2                !
 ! A84   A(29,28,72)           115.4252         estimate D2E/DX2                !
 ! A85   A(28,29,30)           124.5454         estimate D2E/DX2                !
 ! A86   A(28,29,73)           115.4836         estimate D2E/DX2                !
 ! A87   A(30,29,73)           119.9699         estimate D2E/DX2                !
 ! A88   A(29,30,31)           125.3178         estimate D2E/DX2                !
 ! A89   A(29,30,74)           120.5279         estimate D2E/DX2                !
 ! A90   A(31,30,74)           114.1539         estimate D2E/DX2                !
 ! A91   A(30,31,32)           125.7917         estimate D2E/DX2                !
 ! A92   A(30,31,75)           115.6736         estimate D2E/DX2                !
 ! A93   A(32,31,75)           118.5329         estimate D2E/DX2                !
 ! A94   A(31,32,33)           119.715          estimate D2E/DX2                !
 ! A95   A(31,32,76)           121.4958         estimate D2E/DX2                !
 ! A96   A(33,32,76)           118.7866         estimate D2E/DX2                !
 ! A97   A(32,33,34)           121.8286         estimate D2E/DX2                !
 ! A98   A(32,33,77)           118.845          estimate D2E/DX2                !
 ! A99   A(34,33,77)           119.3238         estimate D2E/DX2                !
 ! A100  A(33,34,35)           120.1928         estimate D2E/DX2                !
 ! A101  A(33,34,78)           120.0955         estimate D2E/DX2                !
 ! A102  A(35,34,78)           119.7086         estimate D2E/DX2                !
 ! A103  A(34,35,36)           121.6144         estimate D2E/DX2                !
 ! A104  A(34,35,79)           118.9169         estimate D2E/DX2                !
 ! A105  A(36,35,79)           119.4659         estimate D2E/DX2                !
 ! A106  A(35,36,37)           120.3664         estimate D2E/DX2                !
 ! A107  A(35,36,80)           120.0061         estimate D2E/DX2                !
 ! A108  A(37,36,80)           119.6248         estimate D2E/DX2                !
 ! A109  A(36,37,38)           121.4275         estimate D2E/DX2                !
 ! A110  A(36,37,81)           119.0224         estimate D2E/DX2                !
 ! A111  A(38,37,81)           119.548          estimate D2E/DX2                !
 ! A112  A(37,38,39)           120.5495         estimate D2E/DX2                !
 ! A113  A(37,38,82)           119.9281         estimate D2E/DX2                !
 ! A114  A(39,38,82)           119.5206         estimate D2E/DX2                !
 ! A115  A(38,39,40)           121.2471         estimate D2E/DX2                !
 ! A116  A(38,39,83)           119.1229         estimate D2E/DX2                !
 ! A117  A(40,39,83)           119.6288         estimate D2E/DX2                !
 ! A118  A(39,40,41)           120.72           estimate D2E/DX2                !
 ! A119  A(39,40,84)           119.8586         estimate D2E/DX2                !
 ! A120  A(41,40,84)           119.4206         estimate D2E/DX2                !
 ! A121  A(40,41,42)           121.0932         estimate D2E/DX2                !
 ! A122  A(40,41,85)           119.2144         estimate D2E/DX2                !
 ! A123  A(42,41,85)           119.6921         estimate D2E/DX2                !
 ! A124  A(41,42,43)           120.8337         estimate D2E/DX2                !
 ! A125  A(41,42,86)           119.8452         estimate D2E/DX2                !
 ! A126  A(43,42,86)           119.321          estimate D2E/DX2                !
 ! A127  A(42,43,44)           121.1619         estimate D2E/DX2                !
 ! A128  A(42,43,87)           119.9057         estimate D2E/DX2                !
 ! A129  A(44,43,87)           118.9324         estimate D2E/DX2                !
 ! A130  A(43,44,88)           121.1662         estimate D2E/DX2                !
 ! A131  A(43,44,89)           119.9529         estimate D2E/DX2                !
 ! A132  A(88,44,89)           118.8809         estimate D2E/DX2                !
 ! D1    D(45,1,2,3)             0.0173         estimate D2E/DX2                !
 ! D2    D(45,1,2,46)          179.9162         estimate D2E/DX2                !
 ! D3    D(90,1,2,3)          -179.928          estimate D2E/DX2                !
 ! D4    D(90,1,2,46)           -0.0291         estimate D2E/DX2                !
 ! D5    D(1,2,3,4)             -0.2566         estimate D2E/DX2                !
 ! D6    D(1,2,3,47)           179.6504         estimate D2E/DX2                !
 ! D7    D(46,2,3,4)           179.8438         estimate D2E/DX2                !
 ! D8    D(46,2,3,47)           -0.2491         estimate D2E/DX2                !
 ! D9    D(2,3,4,5)            179.7098         estimate D2E/DX2                !
 ! D10   D(2,3,4,48)            -0.0773         estimate D2E/DX2                !
 ! D11   D(47,3,4,5)            -0.1926         estimate D2E/DX2                !
 ! D12   D(47,3,4,48)         -179.9797         estimate D2E/DX2                !
 ! D13   D(3,4,5,6)             -0.0456         estimate D2E/DX2                !
 ! D14   D(3,4,5,49)          -179.7006         estimate D2E/DX2                !
 ! D15   D(48,4,5,6)           179.7512         estimate D2E/DX2                !
 ! D16   D(48,4,5,49)            0.0962         estimate D2E/DX2                !
 ! D17   D(4,5,6,7)           -179.3255         estimate D2E/DX2                !
 ! D18   D(4,5,6,50)             0.1512         estimate D2E/DX2                !
 ! D19   D(49,5,6,7)             0.3216         estimate D2E/DX2                !
 ! D20   D(49,5,6,50)          179.7983         estimate D2E/DX2                !
 ! D21   D(5,6,7,8)            178.8448         estimate D2E/DX2                !
 ! D22   D(5,6,7,51)            -0.427          estimate D2E/DX2                !
 ! D23   D(50,6,7,8)            -0.6479         estimate D2E/DX2                !
 ! D24   D(50,6,7,51)         -179.9197         estimate D2E/DX2                !
 ! D25   D(6,7,8,9)           -178.8436         estimate D2E/DX2                !
 ! D26   D(6,7,8,52)             0.2604         estimate D2E/DX2                !
 ! D27   D(51,7,8,9)             0.4059         estimate D2E/DX2                !
 ! D28   D(51,7,8,52)          179.5098         estimate D2E/DX2                !
 ! D29   D(7,8,9,10)            -1.3217         estimate D2E/DX2                !
 ! D30   D(7,8,9,53)           178.0915         estimate D2E/DX2                !
 ! D31   D(52,8,9,10)          179.5536         estimate D2E/DX2                !
 ! D32   D(52,8,9,53)           -1.0331         estimate D2E/DX2                !
 ! D33   D(8,9,10,11)          178.4808         estimate D2E/DX2                !
 ! D34   D(8,9,10,54)           -0.7408         estimate D2E/DX2                !
 ! D35   D(53,9,10,11)          -0.902          estimate D2E/DX2                !
 ! D36   D(53,9,10,54)         179.8764         estimate D2E/DX2                !
 ! D37   D(9,10,11,12)          -1.0131         estimate D2E/DX2                !
 ! D38   D(9,10,11,55)        -179.793          estimate D2E/DX2                !
 ! D39   D(54,10,11,12)        178.2446         estimate D2E/DX2                !
 ! D40   D(54,10,11,55)         -0.5353         estimate D2E/DX2                !
 ! D41   D(10,11,12,13)       -177.9884         estimate D2E/DX2                !
 ! D42   D(10,11,12,56)          0.5813         estimate D2E/DX2                !
 ! D43   D(55,11,12,13)          0.7649         estimate D2E/DX2                !
 ! D44   D(55,11,12,56)        179.3346         estimate D2E/DX2                !
 ! D45   D(11,12,13,14)        177.2683         estimate D2E/DX2                !
 ! D46   D(11,12,13,57)         -1.1693         estimate D2E/DX2                !
 ! D47   D(56,12,13,14)         -1.3483         estimate D2E/DX2                !
 ! D48   D(56,12,13,57)       -179.7858         estimate D2E/DX2                !
 ! D49   D(12,13,14,15)       -177.6283         estimate D2E/DX2                !
 ! D50   D(12,13,14,58)          0.7214         estimate D2E/DX2                !
 ! D51   D(57,13,14,15)          0.8048         estimate D2E/DX2                !
 ! D52   D(57,13,14,58)        179.1545         estimate D2E/DX2                !
 ! D53   D(13,14,15,16)        176.7161         estimate D2E/DX2                !
 ! D54   D(13,14,15,59)         -1.5405         estimate D2E/DX2                !
 ! D55   D(58,14,15,16)         -1.6427         estimate D2E/DX2                !
 ! D56   D(58,14,15,59)       -179.8993         estimate D2E/DX2                !
 ! D57   D(14,15,16,17)       -177.4381         estimate D2E/DX2                !
 ! D58   D(14,15,16,60)          0.7936         estimate D2E/DX2                !
 ! D59   D(59,15,16,17)          0.812          estimate D2E/DX2                !
 ! D60   D(59,15,16,60)        179.0437         estimate D2E/DX2                !
 ! D61   D(15,16,17,18)        176.4391         estimate D2E/DX2                !
 ! D62   D(15,16,17,61)         -1.7623         estimate D2E/DX2                !
 ! D63   D(60,16,17,18)         -1.8018         estimate D2E/DX2                !
 ! D64   D(60,16,17,61)        179.9968         estimate D2E/DX2                !
 ! D65   D(16,17,18,19)       -177.4279         estimate D2E/DX2                !
 ! D66   D(16,17,18,62)          0.8164         estimate D2E/DX2                !
 ! D67   D(61,17,18,19)          0.7671         estimate D2E/DX2                !
 ! D68   D(61,17,18,62)        179.0114         estimate D2E/DX2                !
 ! D69   D(17,18,19,20)        176.4628         estimate D2E/DX2                !
 ! D70   D(17,18,19,63)         -1.8189         estimate D2E/DX2                !
 ! D71   D(62,18,19,20)         -1.791          estimate D2E/DX2                !
 ! D72   D(62,18,19,63)        179.9272         estimate D2E/DX2                !
 ! D73   D(18,19,20,21)       -177.6045         estimate D2E/DX2                !
 ! D74   D(18,19,20,64)          0.7868         estimate D2E/DX2                !
 ! D75   D(63,19,20,21)          0.6709         estimate D2E/DX2                !
 ! D76   D(63,19,20,64)        179.0622         estimate D2E/DX2                !
 ! D77   D(19,20,21,22)        176.7872         estimate D2E/DX2                !
 ! D78   D(19,20,21,65)         -1.7117         estimate D2E/DX2                !
 ! D79   D(64,20,21,22)         -1.6117         estimate D2E/DX2                !
 ! D80   D(64,20,21,65)        179.8895         estimate D2E/DX2                !
 ! D81   D(20,21,22,23)       -177.9525         estimate D2E/DX2                !
 ! D82   D(20,21,22,66)          0.693          estimate D2E/DX2                !
 ! D83   D(65,21,22,23)          0.5048         estimate D2E/DX2                !
 ! D84   D(65,21,22,66)        179.1502         estimate D2E/DX2                !
 ! D85   D(21,22,23,24)         -1.8329         estimate D2E/DX2                !
 ! D86   D(21,22,23,67)        177.637          estimate D2E/DX2                !
 ! D87   D(66,22,23,24)        179.4873         estimate D2E/DX2                !
 ! D88   D(66,22,23,67)         -1.0428         estimate D2E/DX2                !
 ! D89   D(22,23,24,25)        178.5629         estimate D2E/DX2                !
 ! D90   D(22,23,24,68)         -1.0708         estimate D2E/DX2                !
 ! D91   D(67,23,24,25)         -0.8754         estimate D2E/DX2                !
 ! D92   D(67,23,24,68)        179.4909         estimate D2E/DX2                !
 ! D93   D(23,24,25,26)         -2.7738         estimate D2E/DX2                !
 ! D94   D(23,24,25,69)        178.2452         estimate D2E/DX2                !
 ! D95   D(68,24,25,26)        176.8746         estimate D2E/DX2                !
 ! D96   D(68,24,25,69)         -2.1063         estimate D2E/DX2                !
 ! D97   D(24,25,26,27)       -178.9873         estimate D2E/DX2                !
 ! D98   D(24,25,26,70)          0.1533         estimate D2E/DX2                !
 ! D99   D(69,25,26,27)         -0.051          estimate D2E/DX2                !
 ! D100  D(69,25,26,70)        179.0896         estimate D2E/DX2                !
 ! D101  D(25,26,27,28)         -2.0056         estimate D2E/DX2                !
 ! D102  D(25,26,27,71)        178.0851         estimate D2E/DX2                !
 ! D103  D(70,26,27,28)        178.8065         estimate D2E/DX2                !
 ! D104  D(70,26,27,71)         -1.1028         estimate D2E/DX2                !
 ! D105  D(26,27,28,29)        179.6961         estimate D2E/DX2                !
 ! D106  D(26,27,28,72)         -0.5949         estimate D2E/DX2                !
 ! D107  D(71,27,28,29)         -0.3999         estimate D2E/DX2                !
 ! D108  D(71,27,28,72)        179.3092         estimate D2E/DX2                !
 ! D109  D(27,28,29,30)         -2.7259         estimate D2E/DX2                !
 ! D110  D(27,28,29,73)        177.6647         estimate D2E/DX2                !
 ! D111  D(72,28,29,30)        177.5528         estimate D2E/DX2                !
 ! D112  D(72,28,29,73)         -2.0566         estimate D2E/DX2                !
 ! D113  D(28,29,30,31)        179.924          estimate D2E/DX2                !
 ! D114  D(28,29,30,74)         -0.3154         estimate D2E/DX2                !
 ! D115  D(73,29,30,31)         -0.483          estimate D2E/DX2                !
 ! D116  D(73,29,30,74)        179.2776         estimate D2E/DX2                !
 ! D117  D(29,30,31,32)         -1.8232         estimate D2E/DX2                !
 ! D118  D(29,30,31,75)        178.6746         estimate D2E/DX2                !
 ! D119  D(74,30,31,32)        178.4028         estimate D2E/DX2                !
 ! D120  D(74,30,31,75)         -1.0994         estimate D2E/DX2                !
 ! D121  D(30,31,32,33)       -179.4378         estimate D2E/DX2                !
 ! D122  D(30,31,32,76)         -0.025          estimate D2E/DX2                !
 ! D123  D(75,31,32,33)          0.0515         estimate D2E/DX2                !
 ! D124  D(75,31,32,76)        179.4643         estimate D2E/DX2                !
 ! D125  D(31,32,33,34)        178.0981         estimate D2E/DX2                !
 ! D126  D(31,32,33,77)         -1.3131         estimate D2E/DX2                !
 ! D127  D(76,32,33,34)         -1.3306         estimate D2E/DX2                !
 ! D128  D(76,32,33,77)        179.2582         estimate D2E/DX2                !
 ! D129  D(32,33,34,35)       -179.2735         estimate D2E/DX2                !
 ! D130  D(32,33,34,78)          0.0912         estimate D2E/DX2                !
 ! D131  D(77,33,34,35)          0.135          estimate D2E/DX2                !
 ! D132  D(77,33,34,78)        179.4996         estimate D2E/DX2                !
 ! D133  D(33,34,35,36)        178.0973         estimate D2E/DX2                !
 ! D134  D(33,34,35,79)         -1.2899         estimate D2E/DX2                !
 ! D135  D(78,34,35,36)         -1.2698         estimate D2E/DX2                !
 ! D136  D(78,34,35,79)        179.343          estimate D2E/DX2                !
 ! D137  D(34,35,36,37)       -179.2548         estimate D2E/DX2                !
 ! D138  D(34,35,36,80)          0.1399         estimate D2E/DX2                !
 ! D139  D(79,35,36,37)          0.1291         estimate D2E/DX2                !
 ! D140  D(79,35,36,80)        179.5238         estimate D2E/DX2                !
 ! D141  D(35,36,37,38)        178.3304         estimate D2E/DX2                !
 ! D142  D(35,36,37,81)         -1.1364         estimate D2E/DX2                !
 ! D143  D(80,36,37,38)         -1.0665         estimate D2E/DX2                !
 ! D144  D(80,36,37,81)        179.4667         estimate D2E/DX2                !
 ! D145  D(36,37,38,39)       -179.3716         estimate D2E/DX2                !
 ! D146  D(36,37,38,82)          0.1431         estimate D2E/DX2                !
 ! D147  D(81,37,38,39)          0.0924         estimate D2E/DX2                !
 ! D148  D(81,37,38,82)        179.6071         estimate D2E/DX2                !
 ! D149  D(37,38,39,40)        178.7418         estimate D2E/DX2                !
 ! D150  D(37,38,39,83)         -0.8743         estimate D2E/DX2                !
 ! D151  D(82,38,39,40)         -0.7748         estimate D2E/DX2                !
 ! D152  D(82,38,39,83)        179.6091         estimate D2E/DX2                !
 ! D153  D(38,39,40,41)       -179.5729         estimate D2E/DX2                !
 ! D154  D(38,39,40,84)          0.1114         estimate D2E/DX2                !
 ! D155  D(83,39,40,41)          0.0413         estimate D2E/DX2                !
 ! D156  D(83,39,40,84)        179.7255         estimate D2E/DX2                !
 ! D157  D(39,40,41,42)        179.2334         estimate D2E/DX2                !
 ! D158  D(39,40,41,85)         -0.5568         estimate D2E/DX2                !
 ! D159  D(84,40,41,42)         -0.4522         estimate D2E/DX2                !
 ! D160  D(84,40,41,85)        179.7576         estimate D2E/DX2                !
 ! D161  D(40,41,42,43)       -179.7929         estimate D2E/DX2                !
 ! D162  D(40,41,42,86)          0.0605         estimate D2E/DX2                !
 ! D163  D(85,41,42,43)         -0.0037         estimate D2E/DX2                !
 ! D164  D(85,41,42,86)        179.8497         estimate D2E/DX2                !
 ! D165  D(41,42,43,44)        179.689          estimate D2E/DX2                !
 ! D166  D(41,42,43,87)         -0.2457         estimate D2E/DX2                !
 ! D167  D(86,42,43,44)         -0.1652         estimate D2E/DX2                !
 ! D168  D(86,42,43,87)        179.9001         estimate D2E/DX2                !
 ! D169  D(42,43,44,88)          0.0068         estimate D2E/DX2                !
 ! D170  D(42,43,44,89)       -179.9534         estimate D2E/DX2                !
 ! D171  D(87,43,44,88)        179.9421         estimate D2E/DX2                !
 ! D172  D(87,43,44,89)         -0.0181         estimate D2E/DX2                !
 --------------------------------------------------------------------------------
 Trust Radius=3.00D-01 FncErr=1.00D-07 GrdErr=1.00D-06 EigMax=2.50D+02 EigMin=1.00D-04
 Number of steps in this run=    403 maximum allowed number of steps=    540.
 GradGradGradGradGradGradGradGradGradGradGradGradGradGradGradGradGradGrad

 Stoichiometry    C44H46
 Framework group  C1[X(C44H46)]
 Deg. of freedom   264
 Full point group                 C1      NOp   1
 Largest Abelian subgroup         C1      NOp   1
 Largest concise Abelian subgroup C1      NOp   1
                         Standard orientation:                         
 ---------------------------------------------------------------------
 Center     Atomic      Atomic             Coordinates (Angstroms)
 Number     Number       Type             X           Y           Z
 ---------------------------------------------------------------------
      1          6           0       24.335205   -0.957280    1.585330
      2          6           0       23.412570   -0.000823    1.415190
      3          6           0       21.979172   -0.236387    1.096426
      4          6           0       21.420363   -1.453652    0.931479
      5          6           0       19.985764   -1.695318    0.618568
      6          6           0       19.054724   -0.737738    0.459113
      7          6           0       17.648943   -1.093215    0.163169
      8          6           0       16.716233   -0.133753    0.027281
      9          6           0       15.273018   -0.369836   -0.245023
     10          6           0       14.707276   -1.583163   -0.418141
     11          6           0       13.256682   -1.816556   -0.658603
     12          6           0       12.318261   -0.854895   -0.715770
     13          6           0       10.893399   -1.196963   -0.916686
     14          6           0        9.956591   -0.239194   -0.918373
     15          6           0        8.522594   -0.565583   -1.065730
     16          6           0        7.598148    0.401496   -0.998950
     17          6           0        6.154342    0.097652   -1.086918
     18          6           0        5.250142    1.075871   -0.945812
     19          6           0        3.798208    0.800203   -0.971992
     20          6           0        2.922779    1.791411   -0.757130
     21          6           0        1.464052    1.550473   -0.722707
     22          6           0        0.629039    2.565444   -0.439345
     23          6           0       -0.848699    2.468626   -0.326559
     24          6           0       -1.575315    1.348739   -0.527365
     25          6           0       -3.057620    1.263915   -0.379477
     26          6           0       -3.844542    2.283890    0.024886
     27          6           0       -5.319052    2.221484    0.201200
     28          6           0       -6.096202    1.147275   -0.052984
     29          6           0       -7.575375    1.110358    0.139382
     30          6           0       -8.308025    2.128111    0.639881
     31          6           0       -9.780128    2.110610    0.837113
     32          6           0      -10.604242    1.098034    0.516902
     33          6           0      -12.056958    1.229674    0.761653
     34          6           0      -12.920588    0.262830    0.424604
     35          6           0      -14.367444    0.439221    0.671313
     36          6           0      -15.259659   -0.492537    0.311632
     37          6           0      -16.701903   -0.280299    0.556886
     38          6           0      -17.615185   -1.182840    0.176257
     39          6           0      -19.053722   -0.944414    0.418927
     40          6           0      -19.980657   -1.825787    0.021920
     41          6           0      -21.416725   -1.571150    0.262291
     42          6           0      -22.350909   -2.440128   -0.145025
     43          6           0      -23.785105   -2.177648    0.094254
     44          6           0      -24.722011   -3.036234   -0.314312
     45          1           0       24.112509   -2.012967    1.503302
     46          1           0       23.730996    1.032234    1.518749
     47          1           0       21.378955    0.658427    1.000485
     48          1           0       22.024643   -2.346046    1.028722
     49          1           0       19.685818   -2.735283    0.520424
     50          1           0       19.306957    0.311400    0.551032
     51          1           0       17.393999   -2.141861    0.072090
     52          1           0       17.017896    0.904848    0.135042
     53          1           0       14.668266    0.525747   -0.289995
     54          1           0       15.313822   -2.478020   -0.374869
     55          1           0       12.949049   -2.852236   -0.775742
     56          1           0       12.576118    0.189596   -0.593862
     57          1           0       10.603531   -2.237962   -1.038561
     58          1           0       10.250140    0.799365   -0.782292
     59          1           0        8.217947   -1.600657   -1.200619
     60          1           0        7.911270    1.432358   -0.848206
     61          1           0        5.827771   -0.928484   -1.237504
     62          1           0        5.588212    2.096460   -0.779492
     63          1           0        3.444214   -0.214295   -1.138288
     64          1           0        3.292429    2.798686   -0.577010
     65          1           0        1.095729    0.547618   -0.903891
     66          1           0        1.052070    3.549194   -0.252200
     67          1           0       -1.332408    3.394895   -0.051279
     68          1           0       -1.082027    0.427618   -0.810971
     69          1           0       -3.492905    0.299096   -0.605335
     70          1           0       -3.412521    3.244689    0.265563
     71          1           0       -5.758411    3.139645    0.564332
     72          1           0       -5.653293    0.233289   -0.427189
     73          1           0       -8.059447    0.185489   -0.147462
     74          1           0       -7.832681    3.050914    0.939899
     75          1           0      -10.207609    3.009945    1.273432
     76          1           0      -10.230815    0.183270    0.071693
     77          1           0      -12.431470    2.142741    1.219810
     78          1           0      -12.560887   -0.651460   -0.041441
     79          1           0      -14.712081    1.354401    1.148163
     80          1           0      -14.925608   -1.407176   -0.172614
     81          1           0      -17.024467    0.634288    1.049902
     82          1           0      -17.300119   -2.096305   -0.322816
     83          1           0      -19.361196   -0.031505    0.924404
     84          1           0      -19.677743   -2.737563   -0.487740
     85          1           0      -21.715698   -0.659997    0.775896
     86          1           0      -22.054931   -3.350713   -0.660938
     87          1           0      -24.091409   -1.271510    0.610311
     88          1           0      -24.456776   -3.952117   -0.834085
     89          1           0      -25.769922   -2.823443   -0.128833
     90          1           0       25.357460   -0.676150    1.817457
 ---------------------------------------------------------------------
 Rotational constants (GHZ):           0.3203136           0.0041156           0.0040816
 Standard basis: 6-31G(d,p) (6D, 7F)
 There are   890 symmetry adapted cartesian basis functions of A   symmetry.
 There are   890 symmetry adapted basis functions of A   symmetry.
   890 basis functions,  1554 primitive gaussians,   890 cartesian basis functions
   155 alpha electrons      155 beta electrons
       nuclear repulsion energy      3152.4100337814 Hartrees.
 NAtoms=   90 NActive=   90 NUniq=   90 SFac= 1.00D+00 NAtFMM=   60 NAOKFM=T Big=T
 Integral buffers will be    131072 words long.
 Raffenetti 2 integral format.
 Two-electron integral symmetry is turned on.
 One-electron integrals computed using PRISM.
 NBasis=   890 RedAO= T EigKep=  7.33D-04  NBF=   890
 NBsUse=   890 1.00D-06 EigRej= -1.00D+00 NBFU=   890
 ExpMin= 1.61D-01 ExpMax= 3.05D+03 ExpMxC= 4.57D+02 IAcc=3 IRadAn=         5 AccDes= 0.00D+00
 Harris functional with IExCor=  402 and IRadAn=       5 diagonalized for initial guess.
 HarFok:  IExCor=  402 AccDes= 0.00D+00 IRadAn=         5 IDoV= 1 UseB2=F ITyADJ=14
 ICtDFT=  3500011 ScaDFX=  1.000000  1.000000  1.000000  1.000000
 FoFCou: FMM=F IPFlag=           0 FMFlag=      100000 FMFlg1=        2001
         NFxFlg=           0 DoJE=T BraDBF=F KetDBF=T FulRan=T
         wScrn=  0.000000 ICntrl=       500 IOpCl=  0 I1Cent=   200000004 NGrid=           0
         NMat0=    1 NMatS0=      1 NMatT0=    0 NMatD0=    1 NMtDS0=    0 NMtDT0=    0
 Petite list used in FoFCou.
 Requested convergence on RMS density matrix=1.00D-08 within 128 cycles.
 Requested convergence on MAX density matrix=1.00D-06.
 Requested convergence on             energy=1.00D-06.
 No special actions if energy rises.
 Integral accuracy reduced to 1.0D-05 until final iterations.
 Initial convergence to 1.0D-05 achieved.  Increase integral accuracy.
 SCF Done:  E(RB3LYP) =  -1704.12030217     A.U. after   13 cycles
            NFock= 13  Conv=0.85D-08     -V/T= 2.0102

 **********************************************************************

            Population analysis using the SCF Density.

 **********************************************************************

 Orbital symmetries:
       Occupied  (A) (A) (A) (A) (A) (A) (A) (A) (A) (A) (A) (A)
                 (A) (A) (A) (A) (A) (A) (A) (A) (A) (A) (A) (A)
                 (A) (A) (A) (A) (A) (A) (A) (A) (A) (A) (A) (A)
                 (A) (A) (A) (A) (A) (A) (A) (A) (A) (A) (A) (A)
                 (A) (A) (A) (A) (A) (A) (A) (A) (A) (A) (A) (A)
                 (A) (A) (A) (A) (A) (A) (A) (A) (A) (A) (A) (A)
                 (A) (A) (A) (A) (A) (A) (A) (A) (A) (A) (A) (A)
                 (A) (A) (A) (A) (A) (A) (A) (A) (A) (A) (A) (A)
                 (A) (A) (A) (A) (A) (A) (A) (A) (A) (A) (A) (A)
                 (A) (A) (A) (A) (A) (A) (A) (A) (A) (A) (A) (A)
                 (A) (A) (A) (A) (A) (A) (A) (A) (A) (A) (A) (A)
                 (A) (A) (A) (A) (A) (A) (A) (A) (A) (A) (A) (A)
                 (A) (A) (A) (A) (A) (A) (A) (A) (A) (A) (A)
       Virtual   (A) (A) (A) (A) (A) (A) (A) (A) (A) (A) (A) (A)
                 (A) (A) (A) (A) (A) (A) (A) (A) (A) (A) (A) (A)
                 (A) (A) (A) (A) (A) (A) (A) (A) (A) (A) (A) (A)
                 (A) (A) (A) (A) (A) (A) (A) (A) (A) (A) (A) (A)
                 (A) (A) (A) (A) (A) (A) (A) (A) (A) (A) (A) (A)
                 (A) (A) (A) (A) (A) (A) (A) (A) (A) (A) (A) (A)
                 (A) (A) (A) (A) (A) (A) (A) (A) (A) (A) (A) (A)
                 (A) (A) (A) (A) (A) (A) (A) (A) (A) (A) (A) (A)
                 (A) (A) (A) (A) (A) (A) (A) (A) (A) (A) (A) (A)
                 (A) (A) (A) (A) (A) (A) (A) (A) (A) (A) (A) (A)
                 (A) (A) (A) (A) (A) (A) (A) (A) (A) (A) (A) (A)
                 (A) (A) (A) (A) (A) (A) (A) (A) (A) (A) (A) (A)
                 (A) (A) (A) (A) (A) (A) (A) (A) (A) (A) (A) (A)
                 (A) (A) (A) (A) (A) (A) (A) (A) (A) (A) (A) (A)
                 (A) (A) (A) (A) (A) (A) (A) (A) (A) (A) (A) (A)
                 (A) (A) (A) (A) (A) (A) (A) (A) (A) (A) (A) (A)
                 (A) (A) (A) (A) (A) (A) (A) (A) (A) (A) (A) (A)
                 (A) (A) (A) (A) (A) (A) (A) (A) (A) (A) (A) (A)
                 (A) (A) (A) (A) (A) (A) (A) (A) (A) (A) (A) (A)
                 (A) (A) (A) (A) (A) (A) (A) (A) (A) (A) (A) (A)
                 (A) (A) (A) (A) (A) (A) (A) (A) (A) (A) (A) (A)
                 (A) (A) (A) (A) (A) (A) (A) (A) (A) (A) (A) (A)
                 (A) (A) (A) (A) (A) (A) (A) (A) (A) (A) (A) (A)
                 (A) (A) (A) (A) (A) (A) (A) (A) (A) (A) (A) (A)
                 (A) (A) (A) (A) (A) (A) (A) (A) (A) (A) (A) (A)
                 (A) (A) (A) (A) (A) (A) (A) (A) (A) (A) (A) (A)
                 (A) (A) (A) (A) (A) (A) (A) (A) (A) (A) (A) (A)
                 (A) (A) (A) (A) (A) (A) (A) (A) (A) (A) (A) (A)
                 (A) (A) (A) (A) (A) (A) (A) (A) (A) (A) (A) (A)
                 (A) (A) (A) (A) (A) (A) (A) (A) (A) (A) (A) (A)
                 (A) (A) (A) (A) (A) (A) (A) (A) (A) (A) (A) (A)
                 (A) (A) (A) (A) (A) (A) (A) (A) (A) (A) (A) (A)
                 (A) (A) (A) (A) (A) (A) (A) (A) (A) (A) (A) (A)
                 (A) (A) (A) (A) (A) (A) (A) (A) (A) (A) (A) (A)
                 (A) (A) (A) (A) (A) (A) (A) (A) (A) (A) (A) (A)
                 (A) (A) (A) (A) (A) (A) (A) (A) (A) (A) (A) (A)
                 (A) (A) (A) (A) (A) (A) (A) (A) (A) (A) (A) (A)
                 (A) (A) (A) (A) (A) (A) (A) (A) (A) (A) (A) (A)
                 (A) (A) (A) (A) (A) (A) (A) (A) (A) (A) (A) (A)
                 (A) (A) (A) (A) (A) (A) (A) (A) (A) (A) (A) (A)
                 (A) (A) (A) (A) (A) (A) (A) (A) (A) (A) (A) (A)
                 (A) (A) (A) (A) (A) (A) (A) (A) (A) (A) (A) (A)
                 (A) (A) (A) (A) (A) (A) (A) (A) (A) (A) (A) (A)
                 (A) (A) (A) (A) (A) (A) (A) (A) (A) (A) (A) (A)
                 (A) (A) (A) (A) (A) (A) (A) (A) (A) (A) (A) (A)
                 (A) (A) (A) (A) (A) (A) (A) (A) (A) (A) (A) (A)
                 (A) (A) (A) (A) (A) (A) (A) (A) (A) (A) (A) (A)
                 (A) (A) (A) (A) (A) (A) (A) (A) (A) (A) (A) (A)
                 (A) (A) (A) (A) (A) (A) (A) (A) (A) (A) (A) (A)
                 (A) (A) (A) (A) (A) (A) (A) (A) (A) (A) (A) (A)
                 (A) (A) (A) (A) (A) (A) (A) (A) (A) (A) (A) (A)
                 (A) (A) (A) (A) (A) (A) (A) (A) (A) (A) (A) (A)
                 (A) (A) (A) (A) (A) (A) (A) (A) (A) (A) (A) (A)
                 (A) (A) (A) (A) (A) (A) (A) (A) (A) (A) (A) (A)
                 (A) (A) (A) (A) (A) (A) (A) (A) (A) (A) (A) (A)
                 (A) (A) (A) (A) (A) (A) (A) (A) (A) (A) (A) (A)
                 (A) (A) (A) (A) (A) (A) (A) (A) (A) (A) (A) (A)
                 (A) (A) (A) (A) (A) (A) (A) (A) (A) (A) (A) (A)
                 (A) (A) (A) (A) (A) (A) (A) (A) (A) (A) (A) (A)
                 (A) (A) (A) (A) (A) (A) (A) (A) (A) (A) (A) (A)
                 (A) (A) (A) (A) (A) (A) (A) (A) (A) (A) (A) (A)
                 (A) (A) (A)
 The electronic state is 1-A.
 Alpha  occ. eigenvalues --  -10.19436 -10.19425 -10.19397 -10.19392 -10.19324
 Alpha  occ. eigenvalues --  -10.19309 -10.19305 -10.19299 -10.19282 -10.19274
 Alpha  occ. eigenvalues --  -10.19267 -10.19266 -10.19254 -10.19240 -10.19237
 Alpha  occ. eigenvalues --  -10.19233 -10.19226 -10.19219 -10.19215 -10.19209
 Alpha  occ. eigenvalues --  -10.19206 -10.19196 -10.19194 -10.19190 -10.19177
 Alpha  occ. eigenvalues --  -10.19176 -10.19166 -10.19152 -10.19149 -10.19135
 Alpha  occ. eigenvalues --  -10.19134 -10.19123 -10.19112 -10.19112 -10.19103
 Alpha  occ. eigenvalues --  -10.19095 -10.19091 -10.19084 -10.19073 -10.19039
 Alpha  occ. eigenvalues --  -10.19011 -10.18931 -10.18005 -10.17909  -0.82961
 Alpha  occ. eigenvalues --   -0.82872  -0.82603  -0.82369  -0.82081  -0.81674
 Alpha  occ. eigenvalues --   -0.81184  -0.80686  -0.80108  -0.79457  -0.78742
 Alpha  occ. eigenvalues --   -0.77968  -0.77136  -0.76264  -0.75339  -0.74309
 Alpha  occ. eigenvalues --   -0.73293  -0.72216  -0.71206  -0.70245  -0.69087
 Alpha  occ. eigenvalues --   -0.68305  -0.65142  -0.64231  -0.62761  -0.61976
 Alpha  occ. eigenvalues --   -0.61374  -0.60072  -0.58868  -0.57755  -0.57102
 Alpha  occ. eigenvalues --   -0.56893  -0.56855  -0.56759  -0.56179  -0.55888
 Alpha  occ. eigenvalues --   -0.55360  -0.55135  -0.55005  -0.54502  -0.52749
 Alpha  occ. eigenvalues --   -0.52186  -0.51848  -0.50152  -0.50104  -0.48899
 Alpha  occ. eigenvalues --   -0.48626  -0.48294  -0.47809  -0.47402  -0.46913
 Alpha  occ. eigenvalues --   -0.46558  -0.45964  -0.45571  -0.45102  -0.44577
 Alpha  occ. eigenvalues --   -0.44539  -0.43583  -0.43357  -0.43001  -0.42321
 Alpha  occ. eigenvalues --   -0.41513  -0.41124  -0.40777  -0.40573  -0.39813
 Alpha  occ. eigenvalues --   -0.39333  -0.39226  -0.38817  -0.38241  -0.38237
 Alpha  occ. eigenvalues --   -0.37877  -0.37594  -0.37402  -0.37071  -0.36762
 Alpha  occ. eigenvalues --   -0.36397  -0.36070  -0.35964  -0.35864  -0.35449
 Alpha  occ. eigenvalues --   -0.35285  -0.35183  -0.35145  -0.34963  -0.34852
 Alpha  occ. eigenvalues --   -0.34588  -0.34523  -0.34480  -0.34184  -0.34135
 Alpha  occ. eigenvalues --   -0.33825  -0.33677  -0.33214  -0.33196  -0.33060
 Alpha  occ. eigenvalues --   -0.32434  -0.31704  -0.30878  -0.29963  -0.28982
 Alpha  occ. eigenvalues --   -0.27911  -0.26778  -0.25573  -0.24287  -0.22962
 Alpha  occ. eigenvalues --   -0.21605  -0.20225  -0.18881  -0.17675  -0.16769
 Alpha virt. eigenvalues --   -0.08566  -0.07523  -0.06100  -0.04703  -0.03371
 Alpha virt. eigenvalues --   -0.01765  -0.00280   0.01387   0.02784   0.04112
 Alpha virt. eigenvalues --    0.05087   0.06445   0.07321   0.07790   0.08004
 Alpha virt. eigenvalues --    0.08214   0.08367   0.08769   0.08945   0.09202
 Alpha virt. eigenvalues --    0.09500   0.09703   0.09793   0.09898   0.10393
 Alpha virt. eigenvalues --    0.11133   0.11220   0.11692   0.11819   0.11965
 Alpha virt. eigenvalues --    0.12053   0.12456   0.12542   0.12606   0.12855
 Alpha virt. eigenvalues --    0.13036   0.13097   0.13593   0.13968   0.14115
 Alpha virt. eigenvalues --    0.14191   0.14241   0.14272   0.14384   0.14615
 Alpha virt. eigenvalues --    0.14771   0.14938   0.15395   0.15457   0.15732
 Alpha virt. eigenvalues --    0.15844   0.16188   0.16633   0.17464   0.18214
 Alpha virt. eigenvalues --    0.18962   0.19178   0.19685   0.19945   0.20584
 Alpha virt. eigenvalues --    0.21052   0.21217   0.21871   0.22480   0.22666
 Alpha virt. eigenvalues --    0.22836   0.24723   0.25741   0.25880   0.27128
 Alpha virt. eigenvalues --    0.27278   0.27647   0.28275   0.28532   0.28647
 Alpha virt. eigenvalues --    0.28981   0.30052   0.31137   0.31416   0.31512
 Alpha virt. eigenvalues --    0.31869   0.32428   0.32673   0.32934   0.33232
 Alpha virt. eigenvalues --    0.33746   0.34931   0.35597   0.35978   0.36200
 Alpha virt. eigenvalues --    0.36454   0.37099   0.37413   0.38148   0.38513
 Alpha virt. eigenvalues --    0.38992   0.39704   0.40628   0.40998   0.41503
 Alpha virt. eigenvalues --    0.41701   0.41835   0.42048   0.42555   0.43530
 Alpha virt. eigenvalues --    0.44463   0.44898   0.45472   0.46223   0.47365
 Alpha virt. eigenvalues --    0.48332   0.48687   0.49672   0.50845   0.51317
 Alpha virt. eigenvalues --    0.51453   0.51649   0.51885   0.52088   0.52393
 Alpha virt. eigenvalues --    0.52453   0.52884   0.53234   0.53455   0.53716
 Alpha virt. eigenvalues --    0.54078   0.54734   0.54833   0.54852   0.55391
 Alpha virt. eigenvalues --    0.55514   0.55966   0.56410   0.56421   0.57132
 Alpha virt. eigenvalues --    0.57178   0.57205   0.57428   0.57565   0.57937
 Alpha virt. eigenvalues --    0.58249   0.58342   0.58364   0.58714   0.58809
 Alpha virt. eigenvalues --    0.58947   0.59027   0.59218   0.59321   0.59364
 Alpha virt. eigenvalues --    0.59969   0.60314   0.60385   0.60888   0.60932
 Alpha virt. eigenvalues --    0.61063   0.61171   0.61773   0.61913   0.62057
 Alpha virt. eigenvalues --    0.62184   0.62365   0.63018   0.63080   0.63424
 Alpha virt. eigenvalues --    0.63519   0.64014   0.64271   0.64452   0.64542
 Alpha virt. eigenvalues --    0.64598   0.65089   0.65137   0.65198   0.65396
 Alpha virt. eigenvalues --    0.65582   0.65739   0.65983   0.66158   0.66460
 Alpha virt. eigenvalues --    0.66586   0.66638   0.67257   0.67728   0.67952
 Alpha virt. eigenvalues --    0.68265   0.68541   0.68571   0.68997   0.69775
 Alpha virt. eigenvalues --    0.69874   0.70576   0.70811   0.71869   0.72675
 Alpha virt. eigenvalues --    0.73841   0.74217   0.75248   0.75374   0.75817
 Alpha virt. eigenvalues --    0.76221   0.78752   0.78772   0.79479   0.79603
 Alpha virt. eigenvalues --    0.80286   0.80706   0.81130   0.81563   0.81620
 Alpha virt. eigenvalues --    0.81896   0.82028   0.82911   0.83105   0.83813
 Alpha virt. eigenvalues --    0.84046   0.84514   0.84624   0.84823   0.84936
 Alpha virt. eigenvalues --    0.85198   0.85462   0.85549   0.85846   0.86100
 Alpha virt. eigenvalues --    0.86282   0.86711   0.86795   0.86982   0.87108
 Alpha virt. eigenvalues --    0.87229   0.87424   0.87682   0.87747   0.88317
 Alpha virt. eigenvalues --    0.88439   0.88587   0.89095   0.89161   0.89772
 Alpha virt. eigenvalues --    0.90126   0.90768   0.90975   0.91335   0.91521
 Alpha virt. eigenvalues --    0.92002   0.92194   0.92640   0.92941   0.93175
 Alpha virt. eigenvalues --    0.93577   0.93754   0.94133   0.94573   0.95365
 Alpha virt. eigenvalues --    0.95638   0.95772   0.96249   0.96685   0.97508
 Alpha virt. eigenvalues --    0.97541   0.98495   1.00512   1.02398   1.02601
 Alpha virt. eigenvalues --    1.02966   1.03252   1.03418   1.03437   1.04040
 Alpha virt. eigenvalues --    1.04284   1.04842   1.05378   1.05578   1.05623
 Alpha virt. eigenvalues --    1.06074   1.06511   1.07136   1.07493   1.07794
 Alpha virt. eigenvalues --    1.08403   1.08836   1.09183   1.09699   1.10240
 Alpha virt. eigenvalues --    1.10582   1.10965   1.11123   1.11290   1.12079
 Alpha virt. eigenvalues --    1.14168   1.16728   1.17179   1.17950   1.18690
 Alpha virt. eigenvalues --    1.18848   1.19169   1.19396   1.20718   1.21086
 Alpha virt. eigenvalues --    1.21311   1.21910   1.22578   1.24037   1.24436
 Alpha virt. eigenvalues --    1.26556   1.27686   1.28161   1.28864   1.28966
 Alpha virt. eigenvalues --    1.29037   1.29369   1.29595   1.29828   1.29965
 Alpha virt. eigenvalues --    1.30068   1.30493   1.30661   1.30727   1.31022
 Alpha virt. eigenvalues --    1.31248   1.31337   1.31404   1.31678   1.31820
 Alpha virt. eigenvalues --    1.32205   1.32432   1.32531   1.32663   1.32744
 Alpha virt. eigenvalues --    1.32816   1.33062   1.33256   1.33671   1.33911
 Alpha virt. eigenvalues --    1.34597   1.34752   1.36584   1.36867   1.37265
 Alpha virt. eigenvalues --    1.37681   1.38487   1.38518   1.40007   1.40785
 Alpha virt. eigenvalues --    1.41273   1.42235   1.42972   1.43366   1.43931
 Alpha virt. eigenvalues --    1.44151   1.44999   1.45395   1.45722   1.45936
 Alpha virt. eigenvalues --    1.46526   1.46849   1.47120   1.47998   1.48096
 Alpha virt. eigenvalues --    1.48128   1.48641   1.49135   1.49344   1.49626
 Alpha virt. eigenvalues --    1.49823   1.50526   1.50637   1.51440   1.51833
 Alpha virt. eigenvalues --    1.51859   1.52464   1.52494   1.53487   1.57473
 Alpha virt. eigenvalues --    1.57527   1.62024   1.68018   1.73955   1.74994
 Alpha virt. eigenvalues --    1.75318   1.75329   1.75776   1.76282   1.76418
 Alpha virt. eigenvalues --    1.76500   1.76562   1.76637   1.76778   1.76945
 Alpha virt. eigenvalues --    1.77127   1.77422   1.77939   1.78094   1.78147
 Alpha virt. eigenvalues --    1.78480   1.78761   1.78990   1.79272   1.83012
 Alpha virt. eigenvalues --    1.83072   1.85502   1.85879   1.85939   1.86259
 Alpha virt. eigenvalues --    1.86649   1.87274   1.87890   1.88342   1.89083
 Alpha virt. eigenvalues --    1.89626   1.89733   1.90819   1.91915   1.92022
 Alpha virt. eigenvalues --    1.92112   1.92602   1.92747   1.92873   1.93233
 Alpha virt. eigenvalues --    1.93368   1.93830   1.93888   1.94135   1.94421
 Alpha virt. eigenvalues --    1.94698   1.94784   1.94849   1.95191   1.96152
 Alpha virt. eigenvalues --    1.96502   1.96624   1.97028   1.98127   1.98418
 Alpha virt. eigenvalues --    1.98774   2.00214   2.00329   2.02087   2.02135
 Alpha virt. eigenvalues --    2.02924   2.03284   2.03420   2.03696   2.04764
 Alpha virt. eigenvalues --    2.04909   2.06138   2.06424   2.06725   2.07890
 Alpha virt. eigenvalues --    2.08227   2.08566   2.09401   2.09559   2.09913
 Alpha virt. eigenvalues --    2.10260   2.10664   2.11205   2.11226   2.12241
 Alpha virt. eigenvalues --    2.12406   2.13992   2.14219   2.14312   2.14838
 Alpha virt. eigenvalues --    2.15647   2.16331   2.16484   2.17582   2.17989
 Alpha virt. eigenvalues --    2.18169   2.18451   2.18590   2.19734   2.20446
 Alpha virt. eigenvalues --    2.20762   2.21163   2.21791   2.22038   2.22284
 Alpha virt. eigenvalues --    2.22448   2.23451   2.24161   2.24309   2.25185
 Alpha virt. eigenvalues --    2.26040   2.26504   2.27216   2.27594   2.28652
 Alpha virt. eigenvalues --    2.29137   2.29838   2.30678   2.31323   2.32344
 Alpha virt. eigenvalues --    2.32943   2.33538   2.34370   2.34632   2.35469
 Alpha virt. eigenvalues --    2.36303   2.37004   2.37169   2.37747   2.38251
 Alpha virt. eigenvalues --    2.38562   2.40209   2.40929   2.41601   2.41602
 Alpha virt. eigenvalues --    2.42604   2.44041   2.44429   2.44664   2.44857
 Alpha virt. eigenvalues --    2.45304   2.46080   2.46384   2.46663   2.46897
 Alpha virt. eigenvalues --    2.47508   2.47764   2.48216   2.48364   2.48632
 Alpha virt. eigenvalues --    2.48816   2.48896   2.49876   2.50034   2.50330
 Alpha virt. eigenvalues --    2.50727   2.50938   2.51077   2.51472   2.51934
 Alpha virt. eigenvalues --    2.52031   2.52331   2.52760   2.52900   2.53482
 Alpha virt. eigenvalues --    2.53502   2.53755   2.53904   2.54526   2.54673
 Alpha virt. eigenvalues --    2.55275   2.55716   2.55938   2.56104   2.56449
 Alpha virt. eigenvalues --    2.56668   2.57005   2.57914   2.58242   2.58674
 Alpha virt. eigenvalues --    2.59133   2.59400   2.59533   2.60113   2.60419
 Alpha virt. eigenvalues --    2.60720   2.60783   2.60955   2.61901   2.62152
 Alpha virt. eigenvalues --    2.62430   2.62691   2.63529   2.63568   2.64000
 Alpha virt. eigenvalues --    2.64257   2.64500   2.65087   2.65654   2.66245
 Alpha virt. eigenvalues --    2.66776   2.67302   2.67370   2.68027   2.68155
 Alpha virt. eigenvalues --    2.68500   2.68626   2.68955   2.69167   2.69599
 Alpha virt. eigenvalues --    2.69650   2.69847   2.70097   2.70265   2.70626
 Alpha virt. eigenvalues --    2.70941   2.71260   2.71463   2.71839   2.72036
 Alpha virt. eigenvalues --    2.72726   2.73389   2.74189   2.76337   2.78553
 Alpha virt. eigenvalues --    2.78994   2.79818   2.81428   2.82486   2.83215
 Alpha virt. eigenvalues --    2.83905   2.85966   2.86485   2.86622   2.86717
 Alpha virt. eigenvalues --    2.88344   2.88892   2.89586   2.90945   2.91175
 Alpha virt. eigenvalues --    2.91359   2.91638   2.91877   2.92254   2.92738
 Alpha virt. eigenvalues --    2.92952   2.93796   2.94504   2.94843   2.95638
 Alpha virt. eigenvalues --    2.96122   2.96569   2.97325   2.97503   2.98374
 Alpha virt. eigenvalues --    2.99038   2.99702   2.99820   2.99910   3.00160
 Alpha virt. eigenvalues --    3.00813   3.01316   3.02997   3.03832   3.06048
 Alpha virt. eigenvalues --    3.10845   3.16029   3.16158   3.16392   3.20271
 Alpha virt. eigenvalues --    3.26207   3.28034   3.32619   3.32882   3.33076
 Alpha virt. eigenvalues --    3.33260   3.33275   3.33818   3.34884   3.35398
 Alpha virt. eigenvalues --    3.35486   3.35588   3.36542   3.37448   3.38438
 Alpha virt. eigenvalues --    3.38574   3.40897   3.41248   3.44274   3.44625
 Alpha virt. eigenvalues --    3.45354   3.48814   3.49079   3.50597   3.52639
 Alpha virt. eigenvalues --    3.52815   3.54100   3.54893   3.55609   3.56161
 Alpha virt. eigenvalues --    3.56728   3.58902   3.60004   3.61045   3.61460
 Alpha virt. eigenvalues --    3.63365   3.64224   3.65547   3.65977   3.66450
 Alpha virt. eigenvalues --    3.66919   3.71042   3.72877   3.75143   3.78300
 Alpha virt. eigenvalues --    3.79244   4.10810   4.11536   4.11964   4.12238
 Alpha virt. eigenvalues --    4.13544   4.13747   4.13792   4.13944   4.14043
 Alpha virt. eigenvalues --    4.14304   4.14445   4.14926   4.15221   4.15658
 Alpha virt. eigenvalues --    4.16229   4.17201   4.17972   4.19001   4.19868
 Alpha virt. eigenvalues --    4.20870   4.21855   4.25767   4.27478   4.29116
 Alpha virt. eigenvalues --    4.30821   4.33152   4.35346   4.37552   4.40032
 Alpha virt. eigenvalues --    4.43186   4.46090   4.49035   4.51819   4.55189
 Alpha virt. eigenvalues --    4.57943   4.60980   4.63941   4.66862   4.69157
 Alpha virt. eigenvalues --    4.71298   4.73143   4.74629   4.75716   4.76645
          Condensed to atoms (all electrons):
 Mulliken charges:
               1
     1  C   -0.237016
     2  C   -0.050547
     3  C   -0.079714
     4  C   -0.075428
     5  C   -0.110962
     6  C   -0.051923
     7  C   -0.052799
     8  C   -0.109765
     9  C   -0.079219
    10  C   -0.080779
    11  C   -0.107463
    12  C   -0.056328
    13  C   -0.075700
    14  C   -0.083327
    15  C   -0.079233
    16  C   -0.080050
    17  C   -0.078576
    18  C   -0.080717
    19  C   -0.081567
    20  C   -0.077354
    21  C   -0.055809
    22  C   -0.105867
    23  C   -0.075664
    24  C   -0.085624
    25  C   -0.082788
    26  C   -0.078707
    27  C   -0.078863
    28  C   -0.082664
    29  C   -0.085709
    30  C   -0.075569
    31  C   -0.106064
    32  C   -0.055712
    33  C   -0.077436
    34  C   -0.081575
    35  C   -0.080747
    36  C   -0.078554
    37  C   -0.080437
    38  C   -0.079426
    39  C   -0.079464
    40  C   -0.080553
    41  C   -0.077024
    42  C   -0.077791
    43  C   -0.033659
    44  C   -0.251999
    45  H    0.096276
    46  H    0.084659
    47  H    0.079440
    48  H    0.080094
    49  H    0.080636
    50  H    0.082546
    51  H    0.082327
    52  H    0.080253
    53  H    0.078752
    54  H    0.079454
    55  H    0.080263
    56  H    0.081137
    57  H    0.080951
    58  H    0.079979
    59  H    0.080885
    60  H    0.080116
    61  H    0.080855
    62  H    0.080352
    63  H    0.080941
    64  H    0.080873
    65  H    0.082207
    66  H    0.080273
    67  H    0.080223
    68  H    0.079828
    69  H    0.080963
    70  H    0.080157
    71  H    0.080143
    72  H    0.080945
    73  H    0.079793
    74  H    0.080198
    75  H    0.080189
    76  H    0.082071
    77  H    0.080741
    78  H    0.080732
    79  H    0.080203
    80  H    0.080576
    81  H    0.079998
    82  H    0.080467
    83  H    0.080099
    84  H    0.080673
    85  H    0.080857
    86  H    0.081603
    87  H    0.083655
    88  H    0.095481
    89  H    0.095327
    90  H    0.097984
 Sum of Mulliken charges =  -0.00000
 Mulliken charges with hydrogens summed into heavy atoms:
               1
     1  C   -0.042755
     2  C    0.034112
     3  C   -0.000274
     4  C    0.004666
     5  C   -0.030327
     6  C    0.030622
     7  C    0.029528
     8  C   -0.029513
     9  C   -0.000467
    10  C   -0.001325
    11  C   -0.027200
    12  C    0.024809
    13  C    0.005251
    14  C   -0.003348
    15  C    0.001652
    16  C    0.000066
    17  C    0.002278
    18  C   -0.000365
    19  C   -0.000626
    20  C    0.003519
    21  C    0.026398
    22  C   -0.025593
    23  C    0.004559
    24  C   -0.005795
    25  C   -0.001825
    26  C    0.001450
    27  C    0.001280
    28  C   -0.001719
    29  C   -0.005916
    30  C    0.004629
    31  C   -0.025876
    32  C    0.026359
    33  C    0.003305
    34  C   -0.000843
    35  C   -0.000543
    36  C    0.002022
    37  C   -0.000439
    38  C    0.001041
    39  C    0.000635
    40  C    0.000119
    41  C    0.003833
    42  C    0.003811
    43  C    0.049996
    44  C   -0.061191
 Electronic spatial extent (au):  <R**2>=         241360.3903
 Charge=             -0.0000 electrons
 Dipole moment (field-independent basis, Debye):
    X=             -0.3357    Y=              0.1544    Z=              0.1561  Tot=              0.4011
 Quadrupole moment (field-independent basis, Debye-Ang):
   XX=           -260.1215   YY=           -235.4005   ZZ=           -280.0794
   XY=             -1.0165   XZ=              0.1936   YZ=             12.5380
 Traceless Quadrupole moment (field-independent basis, Debye-Ang):
   XX=             -1.5877   YY=             23.1333   ZZ=            -21.5456
   XY=             -1.0165   XZ=              0.1936   YZ=             12.5380
 Octapole moment (field-independent basis, Debye-Ang**2):
  XXX=           -128.7985  YYY=              7.0063  ZZZ=              3.2714  XYY=             83.1955
  XXY=            122.5857  XXZ=            167.5035  XZZ=            -60.8618  YZZ=              0.8453
  YYZ=              1.1869  XYZ=           -116.3620
 Hexadecapole moment (field-independent basis, Debye-Ang**3):
 XXXX=        -325208.3338 YYYY=          -3626.5639 ZZZZ=          -1132.2938 XXXY=          -1377.7648
 XXXZ=            662.0011 YYYX=           -285.9919 YYYZ=            110.8146 ZZZX=            -42.6353
 ZZZY=             26.8495 XXYY=         -51802.0638 XXZZ=         -60002.1031 YYZZ=           -859.3395
 XXYZ=           2557.4837 YYXZ=            208.0623 ZZXY=            -16.8207
 N-N= 3.152410033781D+03 E-N=-1.024654612789D+04  KE= 1.686978076177D+03
 Calling FoFJK, ICntrl=      2127 FMM=T ISym2X=0 I1Cent= 0 IOpClX= 0 NMat=1 NMatS=1 NMatT=0.
 ***** Axes restored to original set *****
 -------------------------------------------------------------------
 Center     Atomic                   Forces (Hartrees/Bohr)
 Number     Number              X              Y              Z
 -------------------------------------------------------------------
      1        6          -0.004296685    0.004663431   -0.005284462
      2        6           0.013872759   -0.007617968    0.008010435
      3        6          -0.022817903    0.004591104   -0.003624470
      4        6           0.028013362   -0.005278782    0.003876739
      5        6          -0.031809052    0.007325705   -0.006011495
      6        6           0.028864926   -0.017187061    0.017850298
      7        6          -0.029621463    0.016891820   -0.017333114
      8        6           0.033598832   -0.008346738    0.005419215
      9        6          -0.030071466    0.008685658   -0.006143713
     10        6           0.030094481   -0.009032122    0.005801751
     11        6          -0.033873745    0.009140406   -0.005120852
     12        6           0.028300452   -0.019063138    0.017304314
     13        6          -0.034453825    0.016333516   -0.011767177
     14        6           0.032885805   -0.017090399    0.012040771
     15        6          -0.033095021    0.017612866   -0.011745261
     16        6           0.033226988   -0.018040264    0.010976062
     17        6          -0.033001825    0.018289702   -0.010352845
     18        6           0.033581906   -0.018742818    0.009382809
     19        6          -0.033069529    0.018647499   -0.008452478
     20        6           0.035063600   -0.018844816    0.006481276
     21        6          -0.030525669    0.020678847   -0.011465865
     22        6           0.033366030   -0.013683197   -0.003770217
     23        6          -0.029497639    0.013599155    0.001330968
     24        6           0.030661029   -0.013087547   -0.003211197
     25        6          -0.030237688    0.015276385   -0.001034688
     26        6           0.029167337   -0.016104399    0.000531562
     27        6          -0.029977081    0.013822157    0.004722713
     28        6           0.030799499   -0.013521116   -0.004461515
     29        6          -0.029803735    0.015052270   -0.000055845
     30        6           0.028931882   -0.014467874   -0.001993668
     31        6          -0.032094110    0.016881866   -0.000284596
     32        6           0.033540725   -0.010863773   -0.015438818
     33        6          -0.036327010    0.014063543    0.009932042
     34        6           0.034652239   -0.012782036   -0.011604120
     35        6          -0.035175216    0.012439497    0.012305971
     36        6           0.034493651   -0.011923509   -0.012773985
     37        6          -0.034506481    0.011468478    0.013259436
     38        6           0.033882086   -0.011096828   -0.013470965
     39        6          -0.033527992    0.010530104    0.014153428
     40        6           0.032437156   -0.010081740   -0.014016252
     41        6          -0.031042184    0.008953286    0.015550782
     42        6           0.027263937   -0.007544410   -0.014877185
     43        6          -0.017930805    0.002970176    0.017128903
     44        6           0.008696410   -0.003403151   -0.000995737
     45        1          -0.001040364   -0.001188553    0.001509167
     46        1           0.002652898    0.000925586   -0.001266458
     47        1           0.003522281    0.000737970   -0.001164357
     48        1          -0.003090641   -0.000650605    0.001140359
     49        1          -0.000317940   -0.000338223    0.000596320
     50        1           0.002107823    0.001440382   -0.001831518
     51        1          -0.002166195   -0.001293514    0.001853982
     52        1           0.000306172    0.000526271   -0.000401240
     53        1           0.003487940    0.000754535   -0.001246335
     54        1          -0.003107066   -0.000518245    0.001518873
     55        1          -0.000432742   -0.000158332    0.000742579
     56        1           0.001962624    0.001413510   -0.002050762
     57        1          -0.003283938    0.000558544    0.000674463
     58        1           0.003329388   -0.000208306   -0.000288289
     59        1          -0.003168905    0.000657361    0.000814577
     60        1           0.003307137   -0.000317569   -0.000375720
     61        1          -0.003110904    0.000739537    0.000981972
     62        1           0.003271606   -0.000413134   -0.000520196
     63        1          -0.003054742    0.000786599    0.001171906
     64        1           0.003306226   -0.000537348   -0.000702162
     65        1          -0.001940648   -0.000507105    0.002257669
     66        1           0.000025588    0.000531059   -0.000210341
[...]
 00167,-0.00000025,0.00000098,0.00000061,0.00000045,-0.00000028,-0.0000
 0125,0.00000160,-0.00000134,0.00000036,-0.00000062,0.00000024,-0.00000
 208,-0.00000040,0.00000101,0.00000075,0.00000060,-0.00000051,-0.000001
 55,0.00000231,-0.00000159,0.00000042,-0.00000070,0.00000047,-0.0000022
 8,-0.00000095,0.00000147,-0.00000091,-0.00000078,0.00000126,-0.0000029
 0,-0.00000175,0.00000208,-0.00000144,-0.00000141,0.00000091,-0.0000030
 9,-0.00000219,0.00000276,-0.00000067,0.00000122,0.00000414,-0.00000259
 ,-0.00000356,0.00000344,-0.00000193,-0.00000834,-0.00000938,0.00000833
 ,-0.00000943,0.00001084,-0.00000387,0.00007228,-0.00002283,0.00037745,
 -0.00016689,-0.00001694,0.00084084,-0.00059869,-0.00124136,-0.01168472
 ,0.00546659,-0.00112105,0.34544528,0.00000223,-0.00000078,0.00000019,-
 0.00000176,0.00000300,-0.00000051,0.00000136,-0.00000224,0.00000027,-0
 .00000297,-0.00000103,0.00000163,0.00000263,0.00000044,-0.00000088,-0.
 00000127,0.00000204,-0.00000269,0.00000121,-0.00000165,0.00000196,-0.0
 0000148,0.00000275,-0.00000346,0.00000138,-0.00000211,0.00000252,-0.00
 000335,-0.00000113,0.00000337,0.00000323,0.00000044,-0.00000231,-0.000
 00173,0.00000258,-0.00000322,0.00000174,-0.00000217,0.00000261,-0.0000
 0154,0.00000287,-0.00000378,0.00000140,-0.00000232,0.00000302,-0.00000
 127,0.00000321,-0.00000443,0.00000105,-0.00000250,0.00000345,-0.000000
 99,0.00000347,-0.00000515,0.00000070,-0.00000271,0.00000397,-0.0000005
 9,0.00000409,-0.00000568,0.00000027,-0.00000278,0.00000399,-0.00000063
 ,0.00000559,-0.00000962,0.00000087,-0.00000371,0.00000569,-0.00000579,
 -0.00000416,0.00000958,0.00000494,0.00000225,-0.00000629,-0.00000158,0
 .00000837,-0.00001043,0.00000231,-0.00000660,0.00000730,-0.00000979,-0
 .00000688,0.00000984,0.00000902,0.00000455,-0.00000755,-0.00000262,0.0
 0001397,-0.00001085,0.00000455,-0.00001128,0.00000773,-0.00001162,-0.0
 0000745,0.00000578,0.00001063,0.00000481,-0.00000561,-0.00001092,-0.00
 000561,0.00001667,0.00001207,0.00000671,-0.00001124,-0.00002025,-0.000
 04230,-0.00001419,0.00002256,0.00001866,-0.00001247,0.00001712,0.00005
 898,0.00018583,0.00009908,0.00000878,-0.00008432,-0.00015512,-0.000847
 88,-0.00042363,0.00124423,0.00034531,-0.00036330,0.00073153,0.00090534
 ,0.00802718,0.02573203,-0.00165499,-0.00116377,0.06480005,-0.06327390,
 0.01040315,-0.00000017,0.00000003,0.00000017,0.00000041,-0.00000060,0.
 00000037,-0.00000019,0.00000007,-0.00000016,0.00000078,0.00000006,-0.0
 0000023,-0.00000026,0.00000011,0.00000010,0.00000025,-0.00000031,0.000
 00047,-0.00000007,-0.00000011,0.00000012,0.00000050,-0.00000048,0.0000
 0058,-0.00000029,0.00000021,-0.00000018,0.00000086,0.00000005,-0.00000
 044,-0.00000036,0.00000008,0.00000009,0.00000032,-0.00000046,0.0000005
 4,-0.00000002,-0.00000013,0.00000021,0.00000032,-0.00000060,0.00000075
 ,0.00000003,-0.00000020,0.00000028,0.00000036,-0.00000069,0.00000089,0
 .00000006,-0.00000025,0.00000035,0.00000041,-0.00000079,0.00000105,0.0
 0000009,-0.00000026,0.00000045,0.00000046,-0.00000091,0.00000122,0.,-0
 .00000042,0.00000049,0.00000102,-0.00000116,0.00000141,-0.00000039,0.0
 0000069,-0.00000020,0.00000182,0.00000022,-0.00000090,-0.00000071,-0.0
 0000021,0.00000025,0.00000138,-0.00000139,0.00000125,-0.00000041,0.000
 00080,-0.00000023,0.00000244,0.00000038,-0.00000095,-0.00000093,-0.000
 00010,0.00000057,0.00000189,-0.00000205,0.00000160,-0.00000059,0.00000
 090,-0.00000049,0.00000270,0.00000109,-0.00000126,0.00000087,0.0000013
 5,-0.00000038,0.00000372,0.00000198,-0.00000187,0.00000088,0.00000043,
 -0.00000224,0.00000517,0.00000297,-0.00000210,0.00000325,0.00000971,0.
 00000910,0.00000676,0.00000426,-0.00000424,-0.00000902,-0.00002635,-0.
 00003440,0.00000913,0.00002116,0.00000084,-0.00005151,0.00005587,0.000
 07925,0.00022581,-0.00003596,-0.00023927,-0.00085598,-0.00172746,-0.00
 379025,-0.01636298,0.00626392,0.00055473,-0.07546110,0.05991268,-0.000
 00124,0.00000022,-0.00000029,0.00000101,-0.00000155,0.00000017,-0.0000
 0082,0.00000107,-0.00000018,0.00000158,0.00000055,-0.00000097,-0.00000
 137,-0.00000031,0.00000037,0.00000064,-0.00000114,0.00000137,-0.000000
 63,0.00000082,-0.00000105,0.00000070,-0.00000148,0.00000176,-0.0000007
 1,0.00000105,-0.00000129,0.00000174,0.00000053,-0.00000174,-0.00000167
 ,-0.00000025,0.00000115,0.00000085,-0.00000132,0.00000171,-0.00000084,
 0.00000111,-0.00000138,0.00000076,-0.00000149,0.00000202,-0.00000066,0
 .00000120,-0.00000158,0.00000059,-0.00000169,0.00000239,-0.00000045,0.
 00000133,-0.00000189,0.00000036,-0.00000185,0.00000282,-0.00000023,0.0
 0000143,-0.00000222,0.00000014,-0.00000224,0.00000310,0.00000002,0.000
 00149,-0.00000231,0.00000008,-0.00000305,0.00000514,-0.00000039,0.0000
 0165,-0.00000285,0.00000277,0.00000233,-0.00000538,-0.00000221,-0.0000
 0125,0.00000300,0.00000025,-0.00000458,0.00000570,-0.00000098,0.000002
 85,-0.00000360,0.00000450,0.00000409,-0.00000597,-0.00000369,-0.000002
 33,0.00000329,0.,-0.00000737,0.00000661,-0.00000153,0.00000425,-0.0000
 0377,0.00000407,0.00000372,-0.00000717,-0.00000409,-0.00000485,0.00000
 481,0.00000564,0.00001455,0.00000026,-0.00000467,-0.00001089,0.0000051
 3,-0.00000638,-0.00001556,-0.00005349,-0.00000635,-0.00001274,0.000020
 05,0.00003964,0.00018540,0.00015603,-0.00006774,-0.00007225,-0.0000028
 4,-0.00021716,-0.00043665,-0.00106436,-0.00080729,-0.00010586,0.000483
 88,0.00160216,0.00766565,0.00538854,-0.01729326,0.00448078,0.00453712,
 0.01569802,0.00963095,-0.04195412,0.00000012,0.00000007,-0.00000002,-0
 .00000019,0.00000036,-0.00000008,0.00000010,0.00000003,0.00000017,-0.0
 0000039,0.,0.00000021,0.00000014,0.00000002,0.00000001,-0.00000011,0.0
 0000023,-0.00000019,0.00000006,0.00000011,-0.00000003,-0.00000026,0.00
 000031,-0.00000030,0.00000018,-0.00000007,0.00000009,-0.00000043,0.,0.
 00000024,0.00000017,0.,-0.00000002,-0.00000017,0.00000023,-0.00000030,
 0.,0.00000008,-0.00000011,-0.00000018,0.00000031,-0.00000042,-0.000000
 03,0.00000011,-0.00000016,-0.00000019,0.00000037,-0.00000050,-0.000000
 03,0.00000013,-0.00000019,-0.00000022,0.00000044,-0.00000057,-0.000000
 04,0.00000016,-0.00000022,-0.00000025,0.00000054,-0.00000063,0.0000000
 2,0.00000028,-0.00000022,-0.00000056,0.00000070,-0.00000068,0.00000030
 ,-0.00000027,0.00000018,-0.00000096,0.00000001,0.00000055,0.00000044,0
 .00000024,-0.00000002,-0.00000075,0.00000085,-0.00000058,0.00000032,-0
 .00000028,0.00000027,-0.00000134,-0.00000001,0.00000069,0.00000063,0.0
 0000025,0.00000001,-0.00000103,0.00000123,-0.00000064,0.00000039,-0.00
 000041,0.00000043,-0.00000148,-0.00000032,0.00000105,-0.00000016,0.000
 00017,0.00000134,-0.00000209,-0.00000069,0.00000154,-0.00000084,-0.000
 00175,-0.00000073,-0.00000288,-0.00000045,0.00000273,0.00000257,0.0000
 0956,0.00001465,-0.00000445,-0.00000197,0.00000314,-0.00000881,-0.0000
 3457,-0.00004553,-0.00000337,0.00000492,0.00002184,0.00007188,0.000052
 16,0.00008905,-0.00031757,-0.00015321,-0.00009732,-0.00104410,-0.00384
 700,-0.00375339,0.01558281,-0.00422197,0.00213089,-0.01320823,-0.01312
 730,0.03411551,-0.29177199,0.10723191,-0.02316132,-0.01956604,0.012849
 46,-0.00374666,-0.00056298,-0.00302204,0.00300775,0.00034089,-0.000178
 83,0.00026180,0.00000607,0.00000581,-0.00005114,-0.00004545,-0.0000088
 0,0.00003536,0.00004644,0.00000120,-0.00000088,-0.00003468,-0.00001323
 ,0.00003459,0.00003258,0.00001395,-0.00003664,-0.00000921,0.00002050,-
 0.00002903,0.00000651,-0.00002424,0.00003540,-0.00000640,0.00000854,-0
 .00001087,0.00000593,-0.00001295,0.00001774,-0.00000545,0.00000819,-0.
 00001060,0.00000533,-0.00001103,0.00001512,-0.00000532,0.00000704,-0.0
 0000882,0.00000526,-0.00000948,0.00001263,-0.00000539,0.00000615,-0.00
 000723,0.00000537,-0.00000814,0.00001023,-0.00000564,0.00000528,-0.000
 00604,0.00000564,-0.00000694,0.00000828,-0.00000989,-0.00000280,0.0000
 0866,0.00001021,0.00000415,-0.00001059,-0.00000327,0.00000777,-0.00000
 852,0.00000276,-0.00000907,0.00000992,-0.00000657,-0.00000390,0.000005
 51,0.00000768,0.00000609,-0.00000779,-0.00000102,0.00000625,-0.0000047
 0,0.00000009,-0.00000890,0.00000685,-0.00000377,-0.00000368,0.00000326
 ,0.00000596,0.00000713,-0.00000610,-0.00000258,-0.00000331,0.00000321,
 0.00000410,0.00000454,-0.00000472,-0.00000299,-0.00000337,0.00000318,0
 .00000419,0.00000415,-0.00000397,-0.00000332,-0.00000278,0.00000285,0.
 00000425,0.00000342,-0.00000357,-0.00000362,-0.00000224,0.00000251,0.0
 0000440,0.00000294,-0.00000321,-0.00000366,-0.00000201,0.00000232,0.00
 000442,0.00000257,-0.00000295,-0.00000413,-0.00000165,0.00000214,0.000
 00483,0.00000184,-0.00000252,-0.00000416,0.00000094,0.00000021,0.00181
 126,-0.00172079,0.00076287,0.00092614,-0.00048729,-0.00063434,-0.00118
 163,0.00029371,-0.00023272,0.00012852,0.00001072,-0.00005941,-0.000046
 10,0.00004340,-0.00001334,0.00002829,-0.00000491,-0.00005429,-0.000013
 60,0.00001110,-0.00000739,0.00000442,0.00000077,-0.00000514,-0.0000085
 6,-0.00000019,0.00000446,0.00000182,-0.00000231,0.00000357,-0.00000411
 ,0.00000458,-0.00000505,0.00000004,0.00000158,-0.00000240,-0.00000183,
 0.00000337,-0.00000439,-0.00000025,0.00000126,-0.00000188,-0.00000149,
 0.00000275,-0.00000363,-0.00000021,0.00000105,-0.00000153,-0.00000123,
 0.00000230,-0.00000306,-0.00000016,0.00000089,-0.00000129,-0.00000110,
 0.00000189,-0.00000252,0.00000003,0.00000076,-0.00000095,-0.00000105,0
 .00000152,-0.00000173,0.00000092,0.00000005,-0.00000041,-0.00000249,-0
 .00000024,0.00000135,0.00000053,-0.00000055,0.00000062,-0.00000135,0.0
 0000139,-0.00000117,0.00000077,-0.00000019,-0.00000030,-0.00000209,-0.
 00000033,0.00000102,0.00000045,-0.00000037,0.00000059,-0.00000107,0.00
 000127,-0.00000088,0.00000076,-0.00000032,-0.00000025,-0.00000197,-0.0
 0000069,0.00000098,-0.00000030,-0.00000034,0.00000049,-0.00000124,-0.0
 0000077,0.00000089,-0.00000032,-0.00000035,0.00000027,-0.00000109,-0.0
 0000070,0.00000077,-0.00000023,-0.00000026,0.00000024,-0.00000093,-0.0
 0000064,0.00000068,-0.00000018,-0.00000020,0.00000020,-0.00000083,-0.0
 0000056,0.00000061,-0.00000015,-0.00000014,0.00000016,-0.00000076,-0.0
 0000051,0.00000058,-0.00000010,-0.00000008,0.00000012,-0.00000054,-0.0
 0000043,0.00000048,0.00000009,-0.00000011,0.00000007,-0.00000030,0.000
 00040,-0.00000024,0.30992785,0.11148615,-0.10223605,0.02206570,-0.0179
 0733,0.00964123,-0.00136016,-0.00101191,0.00002902,0.00511925,0.000240
 82,-0.00030038,0.00012922,-0.00009300,0.00019970,-0.00016108,0.0001423
 3,-0.00002691,0.00006535,-0.00008559,-0.00001638,-0.00006984,0.0000691
 6,-0.00000125,-0.00003129,-0.00003798,0.00002144,0.00000609,0.00001962
 ,-0.00002335,0.00002545,-0.00002067,0.00001250,-0.00000906,0.00001511,
 -0.00000372,-0.00000078,-0.00001276,0.00000619,-0.00000487,0.00001015,
 -0.00000401,0.00000127,-0.00000868,0.00000541,-0.00000439,0.00000732,-
 0.00000332,0.00000163,-0.00000648,0.00000442,-0.00000406,0.00000568,-0
 .00000285,0.00000165,-0.00000518,0.00000373,-0.00000344,0.00000469,-0.
 00000242,0.00000159,-0.00000435,0.00000310,-0.00000288,0.00000585,0.00
 000106,-0.00000442,-0.00000544,-0.00000098,0.00000380,0.00000222,-0.00
 000403,0.00000425,-0.00000223,0.00000382,-0.00000388,0.00000365,0.0000
 0163,-0.00000273,-0.00000383,-0.00000211,0.00000297,0.00000087,-0.0000
 0312,0.00000229,-0.00000065,0.00000372,-0.00000276,0.00000223,0.000001
 53,-0.00000155,-0.00000297,-0.00000264,0.00000234,0.00000143,0.0000010
 3,-0.00000114,-0.00000211,-0.00000164,0.00000185,0.00000137,0.00000123
 ,-0.00000121,-0.00000183,-0.00000171,0.00000166,0.00000127,0.00000120,
 -0.00000118,-0.00000169,-0.00000153,0.00000156,0.00000150,0.00000102,-
 0.00000111,-0.00000189,-0.00000130,0.00000137,0.00000156,0.00000087,-0
 .00000103,-0.00000193,-0.00000109,0.00000123,0.00000190,0.00000065,-0.
 00000091,-0.00000217,-0.00000074,0.00000105,0.00000178,-0.00000051,-0.
 00000011,0.02351633,-0.00661618,0.00181568,-0.00028933,-0.00037175,-0.
 00320828,-0.00104374,0.00032423,0.00001372,0.00002784,0.00006219,-0.00
 042638,-0.00002921,0.00001477,-0.00001098,0.00004275,0.00004076,-0.000
 01312,-0.00001081,0.00000040,0.00000055,-0.00000079,-0.00000753,-0.000
 00579,0.00000305,0.00000081,-0.00000172,-0.00000006,-0.00000049,-0.000
 00142,0.00000094,-0.00000149,0.00000193,0.00000040,-0.00000025,0.00000
 097,0.00000059,-0.00000123,0.00000181,0.00000022,-0.00000047,0.0000007
 5,0.00000055,-0.00000103,0.00000152,0.00000017,-0.00000037,0.00000066,
 0.00000048,-0.00000089,0.00000129,0.00000012,-0.00000033,0.00000057,0.
 00000045,-0.00000074,0.00000106,0.00000003,-0.00000028,0.00000043,0.00
 000043,-0.00000059,0.00000074,-0.00000034,0.00000001,0.00000022,0.0000
 0101,0.00000014,-0.00000053,-0.00000017,0.00000025,-0.00000025,0.00000
 055,-0.00000051,0.00000051,-0.00000029,0.00000011,0.00000016,0.0000008
 5,0.00000016,-0.00000040,-0.00000016,0.00000018,-0.00000023,0.00000044
 ,-0.00000048,0.00000038,-0.00000029,0.00000016,0.00000013,0.00000080,0
 .00000031,-0.00000040,0.00000016,0.00000017,-0.00000022,0.00000053,0.0
 0000034,-0.00000038,0.00000014,0.00000014,-0.00000011,0.00000049,0.000
 00031,-0.00000033,0.00000010,0.00000010,-0.00000010,0.00000042,0.00000
 026,-0.00000030,0.00000009,0.00000009,-0.00000009,0.00000036,0.0000002
 4,-0.00000024,0.00000007,0.00000009,-0.00000006,0.00000033,0.00000023,
 -0.00000024,0.00000004,0.00000005,-0.00000004,0.00000023,0.00000022,-0
 .00000020,-0.00000006,0.00000006,0.,0.00000018,-0.00000015,0.00000012,
 -0.11503190,0.09925555,-0.02442761,0.02247096,-0.03802504,0.00855419,-
 0.00265578,0.00452203,0.00265646,0.00353851,0.00921962,0.00064479,0.00
 044620,-0.00100937,0.00008571,-0.00035956,-0.00019985,-0.00003411,-0.0
 0002379,0.00021693,-0.00004736,-0.00003035,-0.00012663,0.00003858,0.00
 000061,-0.00002525,-0.00003223,-0.00001279,0.00006056,0.00001108,-0.00
 001929,0.00002091,-0.00000196,0.00002915,-0.00004203,0.00000345,-0.000
 01276,0.00001939,-0.00000323,0.00001487,-0.00002479,0.00000415,-0.0000
 1140,0.00001562,-0.00000363,0.00001312,-0.00001924,0.00000460,-0.00000
 913,0.00001215,-0.00000450,0.00001075,-0.00001542,0.00000513,-0.000007
 62,0.00000943,-0.00000505,0.00000906,-0.00001204,0.00000596,-0.0000064
 2,0.00000750,-0.00000576,0.00000770,-0.00000955,0.00001070,0.00000252,
 -0.00000875,-0.00001098,-0.00000450,0.00001122,0.00000351,-0.00000808,
 0.00000859,-0.00000292,0.00000961,-0.00001056,0.00000710,0.00000393,-0
 .00000573,-0.00000828,-0.00000627,0.00000803,0.00000123,-0.00000652,0.
 00000476,-0.00000017,0.00000942,-0.00000726,0.00000424,0.00000381,-0.0
 0000350,-0.00000642,-0.00000722,0.00000620,0.00000290,0.00000350,-0.00
 000343,-0.00000446,-0.00000450,0.00000480,0.00000346,0.00000328,-0.000
 00319,-0.00000453,-0.00000409,0.00000402,0.00000359,0.00000277,-0.0000
 0285,-0.00000451,-0.00000343,0.00000365,0.00000356,0.00000239,-0.00000
 259,-0.00000436,-0.00000305,0.00000322,0.00000364,0.00000205,-0.000002
 40,-0.00000436,-0.00000261,0.00000289,0.00000410,0.00000166,-0.0000021
 9,-0.00000492,-0.00000172,0.00000235,0.00000416,-0.00000124,-0.0000001
 9,-0.01060374,0.00457020,0.00153852,-0.00061957,-0.00381076,-0.0057196
 4,-0.00037465,-0.00001915,-0.00018106,0.00016275,-0.00024117,0.0002871
 1,0.00000970,0.00000123,0.00000542,0.00005509,0.00008468,0.00002182,0.
 00000059,-0.00000223,0.00000813,-0.00000526,-0.00001158,-0.00000830,0.
 00000933,0.00000155,-0.00000374,-0.00000235,-0.00000168,-0.00000166,0.
 00000508,-0.00000467,0.00000587,0.00000065,-0.00000058,0.00000200,0.00
 000217,-0.00000335,0.00000494,0.00000042,-0.00000091,0.00000163,0.0000
 0174,-0.00000277,0.00000399,0.00000034,-0.00000076,0.00000140,0.000001
 41,-0.00000234,0.00000329,0.00000023,-0.00000067,0.00000117,0.00000123
 ,-0.00000194,0.00000270,0.,-0.00000057,0.00000086,0.00000114,-0.000001
 50,0.00000180,-0.00000099,0.00000007,0.00000047,0.00000272,0.00000024,
 -0.00000131,-0.00000058,0.00000066,-0.00000061,0.00000150,-0.00000148,
 0.00000133,-0.00000080,0.00000016,0.00000045,0.00000219,0.00000029,-0.
 00000096,-0.00000051,0.00000040,-0.00000056,0.00000118,-0.00000140,0.0
 0000103,-0.00000076,0.00000015,0.00000046,0.00000196,0.00000063,-0.000
 00090,0.00000028,0.00000031,-0.00000048,0.00000127,0.00000078,-0.00000
 091,0.00000030,0.00000030,-0.00000026,0.00000109,0.00000067,-0.0000007
 6,0.00000025,0.00000022,-0.00000027,0.00000095,0.00000059,-0.00000070,
 0.00000019,0.00000018,-0.00000017,0.00000086,0.00000057,-0.00000058,0.
 00000015,0.00000016,-0.00000010,0.00000075,0.00000051,-0.00000051,0.00
 000010,0.00000010,-0.00000005,0.00000058,0.00000049,-0.00000044,-0.000
 00009,0.00000012,0.00000002,0.00000049,-0.00000039,0.00000029,0.023895
 66,-0.02393913,0.02942724\\-0.00000006,-0.00000017,-0.00000004,0.00000
 062,-0.00000103,-0.00000051,0.00000032,0.00000083,0.00000006,-0.000000
 39,-0.00000040,0.00000008,0.00000076,0.00000024,-0.00000037,-0.0000008
 7,-0.00000016,0.00000011,-0.00000005,-0.00000007,0.00000043,-0.0000006
 6,0.00000129,0.00000004,-0.00000012,0.00000022,-0.00000048,-0.00000069
 ,0.00000096,0.00000087,0.00000070,-0.00000105,0.00000077,-0.00000061,0
 .00000052,-0.00000016,0.00000080,-0.00000060,0.00000001,-0.00000051,0.
 00000028,-0.00000009,0.00000099,-0.00000029,0.00000004,-0.00000007,0.0
 0000017,-0.00000004,0.00000061,-0.00000010,-0.00000005,0.00000014,0.00
 000010,0.00000004,-0.00000003,0.00000011,0.00000019,0.00000039,0.00000
 013,-0.00000010,-0.00000036,0.00000012,0.00000037,0.00000117,-0.000000
 02,0.00000020,-0.00000122,0.00000072,-0.00000034,0.00000090,-0.0000002
 6,0.00000011,-0.00000170,-0.00000029,0.00000174,0.00000144,0.00000031,
 -0.00000106,-0.00000016,0.00000107,-0.00000060,0.00000128,-0.00000186,
 0.00000072,-0.00000192,0.00000063,0.00000023,0.00000117,0.00000017,-0.
 00000032,-0.00000117,0.00000105,-0.00000007,0.00000035,-0.00000055,0.0
 0000075,-0.00000023,0.00000030,-0.00000016,0.00000004,-0.00000048,0.00
 000041,0.00000026,-0.00000025,0.00000027,-0.00000041,0.00000017,-0.000
 00006,0.00000044,-0.00000043,0.00000027,-0.00000073,0.00000047,-0.0000
 0030,0.00000060,-0.00000046,0.00000017,-0.00000081,0.00000044,-0.00000
 036,0.00000073,-0.00000043,0.00000004,-0.00000047,0.00000016,-0.000000
 27,0.00000040,-0.00000035,-0.00000011,0.00000016,-0.00000042,-0.000000
 08,-0.00000032,0.00000013,0.00000003,-0.00000037,0.00000016,0.,0.00000
 002,0.00000018,0.00000054,-0.00000017,-0.00000013,-0.00000036,0.000000
 25,-0.00000009,-0.00000022,0.,-0.00000042,-0.00000003,0.00000032,-0.00
 000063,-0.00000064,-0.00000004,-0.00000020,-0.00000003,-0.00000003,-0.
 00000084,-0.00000047,-0.00000057,0.00000011,-0.00000016,-0.00000002,-0
 .00000035,-0.00000010,-0.00000014,0.00000047,0.00000010,-0.00000002,-0
 .00000018,0.00000004,0.00000002,0.00000018,-0.00000015,-0.00000003,-0.
 00000013,0.00000005,0.00000008,0.00000007,0.00000005,-0.00000005,-0.00
 000001,-0.00000006,0.00000010,0.,0.00000021,-0.00000004,0.00000005,-0.
 00000018,-0.00000001,0.,0.00000028,0.00000023,0.00000013,-0.00000003,0
 .00000010,0.00000007,0.00000024,0.00000003,-0.00000004,-0.00000011,-0.
 00000049,-0.00000005,-0.00000004,0.00000031,0.00000029,-0.00000007,-0.
 00000042,0.00000041,0.00000033,0.00000039,0.00000055,0.00000064,-0.000
 00008,0.00000017,-0.00000029,0.00000018,-0.00000022,-0.00000004,0.0000
 0012,0.00000004,-0.00000031,0.00000014,-0.00000010,0.00000007,0.000000
 03,0.00000021,0.00000009,0.00000011,0.00000010,0.00000005,0.00000007,0
 .00000007,-0.00000020,-0.00000009,0.00000010,0.,0.00000012,0.,-0.00000
 023,-0.00000016,0.00000001,0.,0.00000008,-0.00000011,-0.00000021,-0.00
 000017,-0.00000003,-0.00000003,0.,-0.00000022,-0.00000018,-0.00000016,
 -0.00000005,-0.00000009,-0.00000005,-0.00000029,-0.00000018,-0.0000001
 1,-0.00000005,-0.00000014,-0.00000014,-0.00000017,-0.00000027,-0.00000
 004,-0.00000016,-0.00000020,0.00000002,0.00000019,0.\\\@


 REALITY IS FOR PEOPLE WHO CAN'T FACE SCIENCE FICTION.
 Job cpu time:       0 days  4 hours 12 minutes 12.5 seconds.
 Elapsed time:       0 days  4 hours 12 minutes 12.5 seconds.
 File lengths (MBytes):  RWF=   6457 Int=      0 D2E=      0 Chk=     67 Scr=      1
 Normal termination of Gaussian 16 at Sat Oct 28 05:49:22 2023.
