 Entering Gaussian System, Link 0=g16
 Input=./com/23.com
 Output=./log/23.log
 Initial command:
 /home/shohei/gaussian/g16/l1.exe "/home/shohei/gaussian/scratch/Gau-26404.inp" -scrdir="/home/shohei/gaussian/scratch/"
 Entering Link 1 = /home/shohei/gaussian/g16/l1.exe PID=     26406.
  
 Copyright (c) 1988-2017, Gaussian, Inc.  All Rights Reserved.
  
 This is part of the Gaussian(R) 16 program.  It is based on
 the Gaussian(R) 09 system (copyright 2009, Gaussian, Inc.),
 the Gaussian(R) 03 system (copyright 2003, Gaussian, Inc.),
 the Gaussian(R) 98 system (copyright 1998, Gaussian, Inc.),
 the Gaussian(R) 94 system (copyright 1995, Gaussian, Inc.),
 the Gaussian 92(TM) system (copyright 1992, Gaussian, Inc.),
 the Gaussian 90(TM) system (copyright 1990, Gaussian, Inc.),
 the Gaussian 88(TM) system (copyright 1988, Gaussian, Inc.),
 the Gaussian 86(TM) system (copyright 1986, Carnegie Mellon
 University), and the Gaussian 82(TM) system (copyright 1983,
 Carnegie Mellon University). Gaussian is a federally registered
 trademark of Gaussian, Inc.
  
 This software contains proprietary and confidential information,
 including trade secrets, belonging to Gaussian, Inc.
  
 This software is provided under written license and may be
 used, copied, transmitted, or stored only in accord with that
 written license.
  
 The following legend is applicable only to US Government
 contracts under FAR:
  
                    RESTRICTED RIGHTS LEGEND
  
 Use, reproduction and disclosure by the US Government is
 subject to restrictions as set forth in subparagraphs (a)
 and (c) of the Commercial Computer Software - Restricted
 Rights clause in FAR 52.227-19.
  
 Gaussian, Inc.
 340 Quinnipiac St., Bldg. 40, Wallingford CT 06492
  
  
 ---------------------------------------------------------------
 Warning -- This program may not be used in any manner that
 competes with the business of Gaussian, Inc. or will provide
 assistance to any competitor of Gaussian, Inc.  The licensee
 of this program is prohibited from giving any competitor of
 Gaussian, Inc. access to this program.  By using this program,
 the user acknowledges that Gaussian, Inc. is engaged in the
 business of creating and licensing software in the field of
 computational chemistry and represents and warrants to the
 licensee that it is not a competitor of Gaussian, Inc. and that
 it will not use this program in any manner prohibited above.
 ---------------------------------------------------------------
  

 Cite this work as:
 Gaussian 16, Revision B.01,
 M. J. Frisch, G. W. Trucks, H. B. Schlegel, G. E. Scuseria, 
 M. A. Robb, J. R. Cheeseman, G. Scalmani, V. Barone, 
 G. A. Petersson, H. Nakatsuji, X. Li, M. Caricato, A. V. Marenich, 
 J. Bloino, B. G. Janesko, R. Gomperts, B. Mennucci, H. P. Hratchian, 
 J. V. Ortiz, A. F. Izmaylov, J. L. Sonnenberg, D. Williams-Young, 
 F. Ding, F. Lipparini, F. Egidi, J. Goings, B. Peng, A. Petrone, 
 T. Henderson, D. Ranasinghe, V. G. Zakrzewski, J. Gao, N. Rega, 
 G. Zheng, W. Liang, M. Hada, M. Ehara, K. Toyota, R. Fukuda, 
 J. Hasegawa, M. Ishida, T. Nakajima, Y. Honda, O. Kitao, H. Nakai, 
 T. Vreven, K. Throssell, J. A. Montgomery, Jr., J. E. Peralta, 
 F. Ogliaro, M. J. Bearpark, J. J. Heyd, E. N. Brothers, K. N. Kudin, 
 V. N. Staroverov, T. A. Keith, R. Kobayashi, J. Normand, 
 K. Raghavachari, A. P. Rendell, J. C. Burant, S. S. Iyengar, 
 J. Tomasi, M. Cossi, J. M. Millam, M. Klene, C. Adamo, R. Cammi, 
 J. W. Ochterski, R. L. Martin, K. Morokuma, O. Farkas, 
 J. B. Foresman, and D. J. Fox, Gaussian, Inc., Wallingford CT, 2016.
 
 ******************************************
 Gaussian 16:  EM64L-G16RevB.01 20-Dec-2017
                28-Oct-2023 
 ******************************************
 %chk=./chk/23.chk
 ---------------------------
 # B3LYP/6-31G(d,p) OPT FREQ
 ---------------------------
 1/18=20,19=15,26=3,38=1/1,3;
 2/9=110,12=2,17=6,18=5,40=1/2;
 3/5=1,6=6,7=101,11=2,25=1,30=1,71=1,74=-5/1,2,3;
 4//1;
 5/5=2,38=5/2;
 6/7=2,8=2,9=2,10=2,28=1/1;
 7//1,2,3,16;
 1/18=20,19=15,26=3/3(2);
 2/9=110/2;
 99//99;
 2/9=110/2;
 3/5=1,6=6,7=101,11=2,25=1,30=1,71=1,74=-5/1,2,3;
 4/5=5,16=3,69=1/1;
 5/5=2,38=5/2;
 7//1,2,3,16;
 1/18=20,19=15,26=3/3(-5);
 2/9=110/2;
 6/7=2,8=2,9=2,10=2,19=2,28=1/1;
 99/9=1/99;
 ------
 23poly
 ------
 Symbolic Z-matrix:
 Charge =  0 Multiplicity = 1
 C                    -22.69746   4.39864  -0.10839 
 C                    -21.56957   4.87332  -0.64256 
 C                    -20.24623   4.4215   -0.16302 
 C                    -19.11853   4.90403  -0.71451 
 C                    -17.7364   4.52016  -0.319 
 C                    -17.43062   3.64135   0.65862 
 C                    -16.04881   3.24915   1.0473 
 C                    -14.92139   3.70888   0.47552 
 C                    -13.59636   3.2329    0.93142 
 C                    -12.47141   3.67031   0.3379 
 C                    -11.0912   3.24129   0.69039 
 C                    -10.78007   2.37493   1.6777 
 C                    -9.40093   1.9201    2.00478 
 C                    -8.28794   2.29067   1.34719 
 C                    -6.96772   1.74106   1.72467 
 C                    -5.86955   2.06445   1.02886 
 C                    -4.55221   1.48053   1.35793 
 C                    -3.48009   1.75947   0.60511 
 C                    -2.16515   1.14132   0.87624 
 C                    -1.12896   1.37514   0.06034 
 C                     0.18249   0.72533   0.26699 
 C                     1.17356   0.91838  -0.61347 
 C                     2.48191   0.2427   -0.47611 
 C                     3.41898   0.40988  -1.42548 
 C                     4.75522  -0.23768  -1.4503 
 C                     5.24312  -1.05912  -0.49642 
 C                     6.57636  -1.72664  -0.55637 
 C                     7.42619  -1.64075  -1.60196 
 C                     8.74856  -2.31173  -1.69996 
 C                     9.31945  -3.06931  -0.73936 
 C                     10.64831  -3.73579  -0.86903 
 C                     11.40871  -3.71482  -1.98454 
 C                     12.73435  -4.36754  -2.13347 
 C                     13.39377  -5.03769  -1.17274 
 C                     14.72013  -5.62218  -1.4673 
 C                     15.43708  -6.25782  -0.53123 
 C                     16.76786  -6.80936  -0.86329 
 C                     17.53056  -7.40923   0.05976 
 C                     18.8657  -7.93172  -0.30044 
 C                     19.66408  -8.49903   0.61296 
 C                     21.00241  -8.99885   0.23318 
 C                     21.82518  -9.54097   1.14026 
 C                     23.16548  -10.02609   0.74882 
 C                     24.0019  -10.55262   1.65263 
 C                     25.34247  -11.03045   1.25556 
 C                     26.18434  -11.54954   2.15204 
 H                    -22.67532   3.66707   0.69399 
 H                    -21.63563   5.60374  -1.44454 
 H                    -20.21576   3.69341   0.63816 
 H                    -19.20197   5.63109  -1.51813 
 H                    -16.95009   5.00271  -0.88382 
 H                    -18.21724   3.15979   1.22388 
 H                    -15.9661   2.52616   1.85454 
 H                    -14.95474   4.42591  -0.33537 
 H                    -13.56163   2.51551   1.74199 
 H                    -12.55632   4.38306  -0.47824 
 H                    -10.31149   3.67289   0.07745 
 H                    -11.56047   1.9461    2.29208 
 H                    -9.30944   1.21771   2.82901 
 H                    -8.33132   2.97823   0.51179 
 H                    -6.89483   1.04643   2.55825 
 H                    -5.94905   2.74756   0.18603 
 H                    -4.46282   0.79639   2.19845 
 H                    -3.58181   2.43123  -0.24454 
 H                    -2.05026   0.46945   1.72346 
 H                    -1.25989   2.03477  -0.79486 
 H                     0.32994   0.06585   1.11882 
 H                     1.00565   1.56728  -1.4705 
 H                     2.65089  -0.40048   0.37951 
 H                     3.19202   1.05356  -2.27163 
 H                     5.34131  -0.00664  -2.32821 
 H                     4.65228  -1.27585   0.3846 
 H                     6.83672  -2.32561   0.30677 
 H                     7.16293  -1.05834  -2.47326 
 H                     9.25731  -2.14554  -2.63875 
 H                     8.81232  -3.2213    0.20479 
 H                     10.99097  -4.26861   0.00896 
 H                     11.06935  -3.1979   -2.8706 
 H                     13.19791  -4.27316  -3.11231 
 H                     12.9816  -5.15165  -0.17691 
 H                     15.12683  -5.52015  -2.47133 
 H                     15.04803  -6.35859   0.47917 
 H                     17.13797  -6.71208  -1.88177 
 H                     17.17408  -7.50307   1.08284 
 H                     19.20747  -7.84156  -1.32934 
 H                     19.33237  -8.58548   1.64504 
 H                     21.32412  -8.91572  -0.80269 
 H                     21.50983  -9.62108   2.17802 
 H                     23.47536  -9.94845  -0.29105 
 H                     23.69593  -10.62877   2.69353 
 H                     25.65717  -10.96059   0.21763 
 H                     25.90787  -11.63557   3.1987 
 H                     27.16482  -11.89362   1.83886 
 H                    -23.65846   4.74344  -0.47621 
 

 GradGradGradGradGradGradGradGradGradGradGradGradGradGradGradGradGradGrad
 Berny optimization.
 Initialization pass.
                           ----------------------------
                           !    Initial Parameters    !
                           ! (Angstroms and Degrees)  !
 --------------------------                            --------------------------
 ! Name  Definition              Value          Derivative Info.                !
 --------------------------------------------------------------------------------
 ! R1    R(1,2)                  1.3352         estimate D2E/DX2                !
 ! R2    R(1,47)                 1.086          estimate D2E/DX2                !
 ! R3    R(1,94)                 1.0852         estimate D2E/DX2                !
 ! R4    R(2,3)                  1.4783         estimate D2E/DX2                !
 ! R5    R(2,48)                 1.0868         estimate D2E/DX2                !
 ! R6    R(3,4)                  1.3449         estimate D2E/DX2                !
 ! R7    R(3,49)                 1.083          estimate D2E/DX2                !
 ! R8    R(4,5)                  1.488          estimate D2E/DX2                !
 ! R9    R(4,50)                 1.0869         estimate D2E/DX2                !
 ! R10   R(5,6)                  1.3497         estimate D2E/DX2                !
 ! R11   R(5,51)                 1.0817         estimate D2E/DX2                !
 ! R12   R(6,7)                  1.488          estimate D2E/DX2                !
 ! R13   R(6,52)                 1.0818         estimate D2E/DX2                !
 ! R14   R(7,8)                  1.3451         estimate D2E/DX2                !
 ! R15   R(7,53)                 1.0868         estimate D2E/DX2                !
 ! R16   R(8,9)                  1.4799         estimate D2E/DX2                !
 ! R17   R(8,54)                 1.0829         estimate D2E/DX2                !
 ! R18   R(9,10)                 1.345          estimate D2E/DX2                !
 ! R19   R(9,55)                 1.083          estimate D2E/DX2                !
 ! R20   R(10,11)                1.4877         estimate D2E/DX2                !
 ! R21   R(10,56)                1.0869         estimate D2E/DX2                !
 ! R22   R(11,12)                1.3499         estimate D2E/DX2                !
 ! R23   R(11,57)                1.0816         estimate D2E/DX2                !
 ! R24   R(12,13)                1.4886         estimate D2E/DX2                !
 ! R25   R(12,58)                1.0818         estimate D2E/DX2                !
 ! R26   R(13,14)                1.3448         estimate D2E/DX2                !
 ! R27   R(13,59)                1.0868         estimate D2E/DX2                !
 ! R28   R(14,15)                1.479          estimate D2E/DX2                !
 ! R29   R(14,60)                1.0828         estimate D2E/DX2                !
 ! R30   R(15,16)                1.3397         estimate D2E/DX2                !
 ! R31   R(15,61)                1.0875         estimate D2E/DX2                !
 ! R32   R(16,17)                1.478          estimate D2E/DX2                !
 ! R33   R(16,62)                1.0878         estimate D2E/DX2                !
 ! R34   R(17,18)                1.3394         estimate D2E/DX2                !
 ! R35   R(17,63)                1.0874         estimate D2E/DX2                !
 ! R36   R(18,19)                1.4781         estimate D2E/DX2                !
 ! R37   R(18,64)                1.0879         estimate D2E/DX2                !
 ! R38   R(19,20)                1.3394         estimate D2E/DX2                !
 ! R39   R(19,65)                1.0874         estimate D2E/DX2                !
 ! R40   R(20,21)                1.4781         estimate D2E/DX2                !
 ! R41   R(20,66)                1.0879         estimate D2E/DX2                !
 ! R42   R(21,22)                1.3397         estimate D2E/DX2                !
 ! R43   R(21,67)                1.0873         estimate D2E/DX2                !
 ! R44   R(22,23)                1.4789         estimate D2E/DX2                !
 ! R45   R(22,68)                1.088          estimate D2E/DX2                !
 ! R46   R(23,24)                1.3444         estimate D2E/DX2                !
 ! R47   R(23,69)                1.0837         estimate D2E/DX2                !
 ! R48   R(24,25)                1.4851         estimate D2E/DX2                !
 ! R49   R(24,70)                1.0871         estimate D2E/DX2                !
 ! R50   R(25,26)                1.3501         estimate D2E/DX2                !
 ! R51   R(25,71)                1.0806         estimate D2E/DX2                !
 ! R52   R(26,27)                1.4922         estimate D2E/DX2                !
 ! R53   R(26,72)                1.0827         estimate D2E/DX2                !
 ! R54   R(27,28)                1.3501         estimate D2E/DX2                !
 ! R55   R(27,73)                1.0824         estimate D2E/DX2                !
 ! R56   R(28,29)                1.4861         estimate D2E/DX2                !
 ! R57   R(28,74)                1.0806         estimate D2E/DX2                !
 ! R58   R(29,30)                1.35           estimate D2E/DX2                !
 ! R59   R(29,75)                1.0806         estimate D2E/DX2                !
 ! R60   R(30,31)                1.4923         estimate D2E/DX2                !
 ! R61   R(30,76)                1.0824         estimate D2E/DX2                !
 ! R62   R(31,32)                1.3502         estimate D2E/DX2                !
 ! R63   R(31,77)                1.0827         estimate D2E/DX2                !
 ! R64   R(32,33)                1.4851         estimate D2E/DX2                !
 ! R65   R(32,78)                1.0805         estimate D2E/DX2                !
 ! R66   R(33,34)                1.3442         estimate D2E/DX2                !
 ! R67   R(33,79)                1.0872         estimate D2E/DX2                !
 ! R68   R(34,35)                1.4791         estimate D2E/DX2                !
 ! R69   R(34,80)                1.0838         estimate D2E/DX2                !
 ! R70   R(35,36)                1.3395         estimate D2E/DX2                !
 ! R71   R(35,81)                1.0881         estimate D2E/DX2                !
 ! R72   R(36,37)                1.4783         estimate D2E/DX2                !
 ! R73   R(36,82)                1.0874         estimate D2E/DX2                !
 ! R74   R(37,38)                1.3393         estimate D2E/DX2                !
 ! R75   R(37,83)                1.088          estimate D2E/DX2                !
 ! R76   R(38,39)                1.4783         estimate D2E/DX2                !
 ! R77   R(38,84)                1.0875         estimate D2E/DX2                !
 ! R78   R(39,40)                1.3392         estimate D2E/DX2                !
 ! R79   R(39,85)                1.0879         estimate D2E/DX2                !
 ! R80   R(40,41)                1.4782         estimate D2E/DX2                !
 ! R81   R(40,86)                1.0875         estimate D2E/DX2                !
 ! R82   R(41,42)                1.3393         estimate D2E/DX2                !
 ! R83   R(41,87)                1.0879         estimate D2E/DX2                !
 ! R84   R(42,43)                1.4782         estimate D2E/DX2                !
 ! R85   R(42,88)                1.0876         estimate D2E/DX2                !
 ! R86   R(43,44)                1.3393         estimate D2E/DX2                !
 ! R87   R(43,89)                1.0878         estimate D2E/DX2                !
 ! R88   R(44,45)                1.4775         estimate D2E/DX2                !
 ! R89   R(44,90)                1.0876         estimate D2E/DX2                !
 ! R90   R(45,46)                1.3349         estimate D2E/DX2                !
 ! R91   R(45,91)                1.0868         estimate D2E/DX2                !
 ! R92   R(46,92)                1.086          estimate D2E/DX2                !
 ! R93   R(46,93)                1.0853         estimate D2E/DX2                !
 ! A1    A(2,1,47)             121.1863         estimate D2E/DX2                !
 ! A2    A(2,1,94)             119.9658         estimate D2E/DX2                !
 ! A3    A(47,1,94)            118.8479         estimate D2E/DX2                !
 ! A4    A(1,2,3)              121.1816         estimate D2E/DX2                !
 ! A5    A(1,2,48)             118.87           estimate D2E/DX2                !
 ! A6    A(3,2,48)             119.9483         estimate D2E/DX2                !
 ! A7    A(2,3,4)              120.527          estimate D2E/DX2                !
 ! A8    A(2,3,49)             118.0747         estimate D2E/DX2                !
 ! A9    A(4,3,49)             121.3981         estimate D2E/DX2                !
 ! A10   A(3,4,5)              125.2615         estimate D2E/DX2                !
 ! A11   A(3,4,50)             118.6089         estimate D2E/DX2                !
 ! A12   A(5,4,50)             116.1292         estimate D2E/DX2                !
 ! A13   A(4,5,6)              124.8177         estimate D2E/DX2                !
 ! A14   A(4,5,51)             114.9182         estimate D2E/DX2                !
 ! A15   A(6,5,51)             120.2639         estimate D2E/DX2                !
 ! A16   A(5,6,7)              124.8347         estimate D2E/DX2                !
 ! A17   A(5,6,52)             120.2391         estimate D2E/DX2                !
 ! A18   A(7,6,52)             114.9256         estimate D2E/DX2                !
 ! A19   A(6,7,8)              125.2536         estimate D2E/DX2                !
 ! A20   A(6,7,53)             116.1044         estimate D2E/DX2                !
 ! A21   A(8,7,53)             118.64           estimate D2E/DX2                !
 ! A22   A(7,8,9)              120.6346         estimate D2E/DX2                !
 ! A23   A(7,8,54)             121.2502         estimate D2E/DX2                !
 ! A24   A(9,8,54)             118.1116         estimate D2E/DX2                !
 ! A25   A(8,9,10)             120.5519         estimate D2E/DX2                !
 ! A26   A(8,9,55)             118.1861         estimate D2E/DX2                !
 ! A27   A(10,9,55)            121.2559         estimate D2E/DX2                !
 ! A28   A(9,10,11)            125.2827         estimate D2E/DX2                !
 ! A29   A(9,10,56)            118.6381         estimate D2E/DX2                !
 ! A30   A(11,10,56)           116.0715         estimate D2E/DX2                !
 ! A31   A(10,11,12)           124.9044         estimate D2E/DX2                !
 ! A32   A(10,11,57)           114.7994         estimate D2E/DX2                !
 ! A33   A(12,11,57)           120.2931         estimate D2E/DX2                !
 ! A34   A(11,12,13)           124.7749         estimate D2E/DX2                !
 ! A35   A(11,12,58)           120.2326         estimate D2E/DX2                !
 ! A36   A(13,12,58)           114.9877         estimate D2E/DX2                !
 ! A37   A(12,13,14)           125.1093         estimate D2E/DX2                !
 ! A38   A(12,13,59)           116.2392         estimate D2E/DX2                !
 ! A39   A(14,13,59)           118.6379         estimate D2E/DX2                !
 ! A40   A(13,14,15)           120.7677         estimate D2E/DX2                !
 ! A41   A(13,14,60)           121.2693         estimate D2E/DX2                !
 ! A42   A(15,14,60)           117.9449         estimate D2E/DX2                !
 ! A43   A(14,15,16)           120.6272         estimate D2E/DX2                !
 ! A44   A(14,15,61)           119.5251         estimate D2E/DX2                !
 ! A45   A(16,15,61)           119.8258         estimate D2E/DX2                !
 ! A46   A(15,16,17)           121.3055         estimate D2E/DX2                !
 ! A47   A(15,16,62)           119.6108         estimate D2E/DX2                !
 ! A48   A(17,16,62)           119.0596         estimate D2E/DX2                !
 ! A49   A(16,17,18)           120.3981         estimate D2E/DX2                !
 ! A50   A(16,17,63)           119.5969         estimate D2E/DX2                !
 ! A51   A(18,17,63)           119.9776         estimate D2E/DX2                !
 ! A52   A(17,18,19)           121.4602         estimate D2E/DX2                !
 ! A53   A(17,18,64)           119.5195         estimate D2E/DX2                !
 ! A54   A(19,18,64)           118.9925         estimate D2E/DX2                !
 ! A55   A(18,19,20)           120.2305         estimate D2E/DX2                !
 ! A56   A(18,19,65)           119.6913         estimate D2E/DX2                !
 ! A57   A(20,19,65)           120.0486         estimate D2E/DX2                !
 ! A58   A(19,20,21)           121.6323         estimate D2E/DX2                !
 ! A59   A(19,20,66)           119.4439         estimate D2E/DX2                !
 ! A60   A(21,20,66)           118.8959         estimate D2E/DX2                !
 ! A61   A(20,21,22)           120.0747         estimate D2E/DX2                !
 ! A62   A(20,21,67)           119.7672         estimate D2E/DX2                !
 ! A63   A(22,21,67)           120.1306         estimate D2E/DX2                !
 ! A64   A(21,22,23)           121.8425         estimate D2E/DX2                !
 ! A65   A(21,22,68)           119.3063         estimate D2E/DX2                !
 ! A66   A(23,22,68)           118.8275         estimate D2E/DX2                !
 ! A67   A(22,23,24)           119.6198         estimate D2E/DX2                !
 ! A68   A(22,23,69)           118.8459         estimate D2E/DX2                !
 ! A69   A(24,23,69)           121.5122         estimate D2E/DX2                !
 ! A70   A(23,24,25)           125.7853         estimate D2E/DX2                !
 ! A71   A(23,24,70)           118.539          estimate D2E/DX2                !
 ! A72   A(25,24,70)           115.6594         estimate D2E/DX2                !
 ! A73   A(24,25,26)           125.3567         estimate D2E/DX2                !
 ! A74   A(24,25,71)           114.1028         estimate D2E/DX2                !
 ! A75   A(26,25,71)           120.5384         estimate D2E/DX2                !
 ! A76   A(25,26,27)           124.519          estimate D2E/DX2                !
 ! A77   A(25,26,72)           119.9669         estimate D2E/DX2                !
 ! A78   A(27,26,72)           115.5133         estimate D2E/DX2                !
 ! A79   A(26,27,28)           124.4053         estimate D2E/DX2                !
 ! A80   A(26,27,73)           115.4949         estimate D2E/DX2                !
 ! A81   A(28,27,73)           120.0896         estimate D2E/DX2                !
 ! A82   A(27,28,29)           125.623          estimate D2E/DX2                !
 ! A83   A(27,28,74)           120.3564         estimate D2E/DX2                !
 ! A84   A(29,28,74)           114.0143         estimate D2E/DX2                !
 ! A85   A(28,29,30)           125.642          estimate D2E/DX2                !
 ! A86   A(28,29,75)           114.0024         estimate D2E/DX2                !
 ! A87   A(30,29,75)           120.3553         estimate D2E/DX2                !
 ! A88   A(29,30,31)           124.4268         estimate D2E/DX2                !
 ! A89   A(29,30,76)           120.0869         estimate D2E/DX2                !
 ! A90   A(31,30,76)           115.4851         estimate D2E/DX2                !
 ! A91   A(30,31,32)           124.4971         estimate D2E/DX2                !
 ! A92   A(30,31,77)           115.5412         estimate D2E/DX2                !
 ! A93   A(32,31,77)           119.9602         estimate D2E/DX2                !
 ! A94   A(31,32,33)           125.3614         estimate D2E/DX2                !
 ! A95   A(31,32,78)           120.5344         estimate D2E/DX2                !
 ! A96   A(33,32,78)           114.1038         estimate D2E/DX2                !
 ! A97   A(32,33,34)           125.8258         estimate D2E/DX2                !
 ! A98   A(32,33,79)           115.6419         estimate D2E/DX2                !
 ! A99   A(34,33,79)           118.5292         estimate D2E/DX2                !
 ! A100  A(33,34,35)           119.6421         estimate D2E/DX2                !
 ! A101  A(33,34,80)           121.5049         estimate D2E/DX2                !
 ! A102  A(35,34,80)           118.8487         estimate D2E/DX2                !
 ! A103  A(34,35,36)           121.8922         estimate D2E/DX2                !
 ! A104  A(34,35,81)           118.8101         estimate D2E/DX2                !
 ! A105  A(36,35,81)           119.2935         estimate D2E/DX2                !
 ! A106  A(35,36,37)           120.1249         estimate D2E/DX2                !
 ! A107  A(35,36,82)           120.1206         estimate D2E/DX2                !
 ! A108  A(37,36,82)           119.7496         estimate D2E/DX2                !
 ! A109  A(36,37,38)           121.6654         estimate D2E/DX2                !
 ! A110  A(36,37,83)           118.8904         estimate D2E/DX2                !
 ! A111  A(38,37,83)           119.4397         estimate D2E/DX2                !
 ! A112  A(37,38,39)           120.3133         estimate D2E/DX2                !
 ! A113  A(37,38,84)           120.0253         estimate D2E/DX2                !
 ! A114  A(39,38,84)           119.6571         estimate D2E/DX2                !
 ! A115  A(38,39,40)           121.4636         estimate D2E/DX2                !
 ! A116  A(38,39,85)           119.0045         estimate D2E/DX2                !
 ! A117  A(40,39,85)           119.5286         estimate D2E/DX2                !
 ! A118  A(39,40,41)           120.513          estimate D2E/DX2                !
 ! A119  A(39,40,86)           119.9407         estimate D2E/DX2                !
 ! A120  A(41,40,86)           119.5435         estimate D2E/DX2                !
 ! A121  A(40,41,42)           121.2694         estimate D2E/DX2                !
 ! A122  A(40,41,87)           119.1126         estimate D2E/DX2                !
 ! A123  A(42,41,87)           119.6163         estimate D2E/DX2                !
 ! A124  A(41,42,43)           120.6991         estimate D2E/DX2                !
 ! A125  A(41,42,88)           119.8652         estimate D2E/DX2                !
 ! A126  A(43,42,88)           119.4345         estimate D2E/DX2                !
 ! A127  A(42,43,44)           121.1038         estimate D2E/DX2                !
 ! A128  A(42,43,89)           119.2101         estimate D2E/DX2                !
 ! A129  A(44,43,89)           119.6856         estimate D2E/DX2                !
 ! A130  A(43,44,45)           120.8252         estimate D2E/DX2                !
 ! A131  A(43,44,90)           119.8473         estimate D2E/DX2                !
 ! A132  A(45,44,90)           119.3273         estimate D2E/DX2                !
 ! A133  A(44,45,46)           121.1644         estimate D2E/DX2                !
 ! A134  A(44,45,91)           119.9053         estimate D2E/DX2                !
 ! A135  A(46,45,91)           118.9303         estimate D2E/DX2                !
 ! A136  A(45,46,92)           121.1662         estimate D2E/DX2                !
 ! A137  A(45,46,93)           119.9512         estimate D2E/DX2                !
 ! A138  A(92,46,93)           118.8827         estimate D2E/DX2                !
 ! D1    D(47,1,2,3)             0.0148         estimate D2E/DX2                !
 ! D2    D(47,1,2,48)          179.9438         estimate D2E/DX2                !
 ! D3    D(94,1,2,3)          -179.948          estimate D2E/DX2                !
 ! D4    D(94,1,2,48)           -0.019          estimate D2E/DX2                !
 ! D5    D(1,2,3,4)            179.7093         estimate D2E/DX2                !
 ! D6    D(1,2,3,49)            -0.1239         estimate D2E/DX2                !
 ! D7    D(48,2,3,4)            -0.219          estimate D2E/DX2                !
 ! D8    D(48,2,3,49)          179.9479         estimate D2E/DX2                !
 ! D9    D(2,3,4,5)           -179.7494         estimate D2E/DX2                !
 ! D10   D(2,3,4,50)            -0.0107         estimate D2E/DX2                !
 ! D11   D(49,3,4,5)             0.0781         estimate D2E/DX2                !
 ! D12   D(49,3,4,50)          179.8168         estimate D2E/DX2                !
 ! D13   D(3,4,5,6)             -0.6256         estimate D2E/DX2                !
 ! D14   D(3,4,5,51)           179.2231         estimate D2E/DX2                !
 ! D15   D(50,4,5,6)           179.6299         estimate D2E/DX2                !
 ! D16   D(50,4,5,51)           -0.5214         estimate D2E/DX2                !
 ! D17   D(4,5,6,7)            179.4951         estimate D2E/DX2                !
 ! D18   D(4,5,6,52)            -0.2224         estimate D2E/DX2                !
 ! D19   D(51,5,6,7)            -0.346          estimate D2E/DX2                !
 ! D20   D(51,5,6,52)          179.9365         estimate D2E/DX2                !
 ! D21   D(5,6,7,8)             -0.3854         estimate D2E/DX2                !
 ! D22   D(5,6,7,53)          -179.8635         estimate D2E/DX2                !
 ! D23   D(52,6,7,8)           179.3455         estimate D2E/DX2                !
 ! D24   D(52,6,7,53)           -0.1326         estimate D2E/DX2                !
 ! D25   D(6,7,8,9)           -179.0897         estimate D2E/DX2                !
 ! D26   D(6,7,8,54)             0.2099         estimate D2E/DX2                !
 ! D27   D(53,7,8,9)             0.3762         estimate D2E/DX2                !
 ! D28   D(53,7,8,54)          179.6758         estimate D2E/DX2                !
 ! D29   D(7,8,9,10)           178.4566         estimate D2E/DX2                !
 ! D30   D(7,8,9,55)            -0.654          estimate D2E/DX2                !
 ! D31   D(54,8,9,10)           -0.8645         estimate D2E/DX2                !
 ! D32   D(54,8,9,55)         -179.9751         estimate D2E/DX2                !
 ! D33   D(8,9,10,11)         -178.632          estimate D2E/DX2                !
 ! D34   D(8,9,10,56)            0.3154         estimate D2E/DX2                !
 ! D35   D(55,9,10,11)           0.451          estimate D2E/DX2                !
 ! D36   D(55,9,10,56)         179.3984         estimate D2E/DX2                !
 ! D37   D(9,10,11,12)          -1.6017         estimate D2E/DX2                !
 ! D38   D(9,10,11,57)         177.7543         estimate D2E/DX2                !
 ! D39   D(56,10,11,12)        179.4268         estimate D2E/DX2                !
 ! D40   D(56,10,11,57)         -1.2172         estimate D2E/DX2                !
 ! D41   D(10,11,12,13)        178.3083         estimate D2E/DX2                !
 ! D42   D(10,11,12,58)         -0.8595         estimate D2E/DX2                !
 ! D43   D(57,11,12,13)         -1.0146         estimate D2E/DX2                !
 ! D44   D(57,11,12,58)        179.8175         estimate D2E/DX2                !
 ! D45   D(11,12,13,14)         -1.3068         estimate D2E/DX2                !
 ! D46   D(11,12,13,59)       -179.9438         estimate D2E/DX2                !
 ! D47   D(58,12,13,14)        177.9            estimate D2E/DX2                !
 ! D48   D(58,12,13,59)         -0.737          estimate D2E/DX2                !
 ! D49   D(12,13,14,15)       -177.8055         estimate D2E/DX2                !
 ! D50   D(12,13,14,60)          0.6167         estimate D2E/DX2                !
 ! D51   D(59,13,14,15)          0.8016         estimate D2E/DX2                !
 ! D52   D(59,13,14,60)        179.2237         estimate D2E/DX2                !
 ! D53   D(13,14,15,16)        176.912          estimate D2E/DX2                !
 ! D54   D(13,14,15,61)         -1.3811         estimate D2E/DX2                !
 ! D55   D(60,14,15,16)         -1.5613         estimate D2E/DX2                !
 ! D56   D(60,14,15,61)       -179.8545         estimate D2E/DX2                !
 ! D57   D(14,15,16,17)       -177.4345         estimate D2E/DX2                !
 ! D58   D(14,15,16,62)          0.7623         estimate D2E/DX2                !
 ! D59   D(61,15,16,17)          0.8535         estimate D2E/DX2                !
 ! D60   D(61,15,16,62)        179.0503         estimate D2E/DX2                !
 ! D61   D(15,16,17,18)        176.3195         estimate D2E/DX2                !
 ! D62   D(15,16,17,63)         -1.7749         estimate D2E/DX2                !
 ! D63   D(62,16,17,18)         -1.887          estimate D2E/DX2                !
 ! D64   D(62,16,17,63)       -179.9814         estimate D2E/DX2                !
 ! D65   D(16,17,18,19)       -177.2205         estimate D2E/DX2                !
 ! D66   D(16,17,18,64)          0.8399         estimate D2E/DX2                !
 ! D67   D(63,17,18,19)          0.8666         estimate D2E/DX2                !
 ! D68   D(63,17,18,64)        178.927          estimate D2E/DX2                !
 ! D69   D(17,18,19,20)        175.9878         estimate D2E/DX2                !
 ! D70   D(17,18,19,65)         -2.0327         estimate D2E/DX2                !
 ! D71   D(64,18,19,20)         -2.0826         estimate D2E/DX2                !
 ! D72   D(64,18,19,65)        179.8969         estimate D2E/DX2                !
 ! D73   D(18,19,20,21)       -177.1901         estimate D2E/DX2                !
 ! D74   D(18,19,20,66)          0.8692         estimate D2E/DX2                !
 ! D75   D(65,19,20,21)          0.8234         estimate D2E/DX2                !
 ! D76   D(65,19,20,66)        178.8826         estimate D2E/DX2                !
 ! D77   D(19,20,21,22)        175.9695         estimate D2E/DX2                !
 ! D78   D(19,20,21,67)         -2.1227         estimate D2E/DX2                !
 ! D79   D(66,20,21,22)         -2.1002         estimate D2E/DX2                !
 ! D80   D(66,20,21,67)        179.8077         estimate D2E/DX2                !
 ! D81   D(20,21,22,23)       -177.3644         estimate D2E/DX2                !
 ! D82   D(20,21,22,68)          0.8425         estimate D2E/DX2                !
 ! D83   D(67,21,22,23)          0.7208         estimate D2E/DX2                !
 ! D84   D(67,21,22,68)        178.9277         estimate D2E/DX2                !
 ! D85   D(21,22,23,24)        176.282          estimate D2E/DX2                !
 ! D86   D(21,22,23,69)         -2.0321         estimate D2E/DX2                !
 ! D87   D(68,22,23,24)         -1.9333         estimate D2E/DX2                !
 ! D88   D(68,22,23,69)        179.7527         estimate D2E/DX2                !
 ! D89   D(22,23,24,25)       -177.7332         estimate D2E/DX2                !
 ! D90   D(22,23,24,70)          0.7349         estimate D2E/DX2                !
 ! D91   D(69,23,24,25)          0.5346         estimate D2E/DX2                !
 ! D92   D(69,23,24,70)        179.0026         estimate D2E/DX2                !
 ! D93   D(23,24,25,26)         -2.2794         estimate D2E/DX2                !
 ! D94   D(23,24,25,71)        177.1876         estimate D2E/DX2                !
 ! D95   D(70,24,25,26)        179.2136         estimate D2E/DX2                !
 ! D96   D(70,24,25,71)         -1.3195         estimate D2E/DX2                !
 ! D97   D(24,25,26,27)        178.431          estimate D2E/DX2                !
 ! D98   D(24,25,26,72)         -1.2257         estimate D2E/DX2                !
 ! D99   D(71,25,26,27)         -1.004          estimate D2E/DX2                !
 ! D100  D(71,25,26,72)        179.3392         estimate D2E/DX2                !
 ! D101  D(25,26,27,28)         -3.407          estimate D2E/DX2                !
 ! D102  D(25,26,27,73)        177.7552         estimate D2E/DX2                !
 ! D103  D(72,26,27,28)        176.2635         estimate D2E/DX2                !
 ! D104  D(72,26,27,73)         -2.5742         estimate D2E/DX2                !
 ! D105  D(26,27,28,29)       -178.9086         estimate D2E/DX2                !
 ! D106  D(26,27,28,74)          0.1145         estimate D2E/DX2                !
 ! D107  D(73,27,28,29)         -0.1211         estimate D2E/DX2                !
 ! D108  D(73,27,28,74)        178.902          estimate D2E/DX2                !
 ! D109  D(27,28,29,30)         -2.4918         estimate D2E/DX2                !
 ! D110  D(27,28,29,75)        177.6941         estimate D2E/DX2                !
 ! D111  D(74,28,29,30)        178.431          estimate D2E/DX2                !
 ! D112  D(74,28,29,75)         -1.3831         estimate D2E/DX2                !
 ! D113  D(28,29,30,31)        179.7443         estimate D2E/DX2                !
 ! D114  D(28,29,30,76)         -0.6789         estimate D2E/DX2                !
 ! D115  D(75,29,30,31)         -0.4526         estimate D2E/DX2                !
 ! D116  D(75,29,30,76)        179.1243         estimate D2E/DX2                !
 ! D117  D(29,30,31,32)         -3.3708         estimate D2E/DX2                !
 ! D118  D(29,30,31,77)        177.0595         estimate D2E/DX2                !
 ! D119  D(76,30,31,32)        177.0348         estimate D2E/DX2                !
 ! D120  D(76,30,31,77)         -2.5349         estimate D2E/DX2                !
 ! D121  D(30,31,32,33)        179.8196         estimate D2E/DX2                !
 ! D122  D(30,31,32,78)         -0.4332         estimate D2E/DX2                !
 ! D123  D(77,31,32,33)         -0.6285         estimate D2E/DX2                !
 ! D124  D(77,31,32,78)        179.1187         estimate D2E/DX2                !
 ! D125  D(31,32,33,34)         -2.2715         estimate D2E/DX2                !
 ! D126  D(31,32,33,79)        178.3843         estimate D2E/DX2                !
 ! D127  D(78,32,33,34)        177.9671         estimate D2E/DX2                !
 ! D128  D(78,32,33,79)         -1.3771         estimate D2E/DX2                !
 ! D129  D(32,33,34,35)       -179.2444         estimate D2E/DX2                !
 ! D130  D(32,33,34,80)         -0.0047         estimate D2E/DX2                !
 ! D131  D(79,33,34,35)          0.0827         estimate D2E/DX2                !
 ! D132  D(79,33,34,80)        179.3224         estimate D2E/DX2                !
 ! D133  D(33,34,35,36)        177.611          estimate D2E/DX2                !
 ! D134  D(33,34,35,81)         -1.6343         estimate D2E/DX2                !
 ! D135  D(80,34,35,36)         -1.6489         estimate D2E/DX2                !
 ! D136  D(80,34,35,81)        179.1058         estimate D2E/DX2                !
 ! D137  D(34,35,36,37)       -179.062          estimate D2E/DX2                !
 ! D138  D(34,35,36,82)          0.1315         estimate D2E/DX2                !
 ! D139  D(81,35,36,37)          0.1797         estimate D2E/DX2                !
 ! D140  D(81,35,36,82)        179.3732         estimate D2E/DX2                !
 ! D141  D(35,36,37,38)        177.6372         estimate D2E/DX2                !
 ! D142  D(35,36,37,83)         -1.5899         estimate D2E/DX2                !
 ! D143  D(82,36,37,38)         -1.5594         estimate D2E/DX2                !
 ! D144  D(82,36,37,83)        179.2135         estimate D2E/DX2                !
 ! D145  D(36,37,38,39)       -179.0542         estimate D2E/DX2                !
 ! D146  D(36,37,38,84)          0.1865         estimate D2E/DX2                !
 ! D147  D(83,37,38,39)          0.1688         estimate D2E/DX2                !
 ! D148  D(83,37,38,84)        179.4095         estimate D2E/DX2                !
 ! D149  D(37,38,39,40)        177.9419         estimate D2E/DX2                !
 ! D150  D(37,38,39,85)         -1.3912         estimate D2E/DX2                !
 ! D151  D(84,38,39,40)         -1.3015         estimate D2E/DX2                !
 ! D152  D(84,38,39,85)        179.3653         estimate D2E/DX2                !
 ! D153  D(38,39,40,41)       -179.2092         estimate D2E/DX2                !
 ! D154  D(38,39,40,86)          0.1863         estimate D2E/DX2                !
 ! D155  D(85,39,40,41)          0.1204         estimate D2E/DX2                !
 ! D156  D(85,39,40,86)        179.516          estimate D2E/DX2                !
 ! D157  D(39,40,41,42)        178.458          estimate D2E/DX2                !
 ! D158  D(39,40,41,87)         -1.0643         estimate D2E/DX2                !
 ! D159  D(86,40,41,42)         -0.9399         estimate D2E/DX2                !
 ! D160  D(86,40,41,87)        179.5377         estimate D2E/DX2                !
 ! D161  D(40,41,42,43)       -179.4652         estimate D2E/DX2                !
 ! D162  D(40,41,42,88)          0.1437         estimate D2E/DX2                !
 ! D163  D(87,41,42,43)          0.0548         estimate D2E/DX2                !
 ! D164  D(87,41,42,88)        179.6638         estimate D2E/DX2                !
 ! D165  D(41,42,43,44)        179.0661         estimate D2E/DX2                !
 ! D166  D(41,42,43,89)         -0.6738         estimate D2E/DX2                !
 ! D167  D(88,42,43,44)         -0.5446         estimate D2E/DX2                !
 ! D168  D(88,42,43,89)        179.7155         estimate D2E/DX2                !
 ! D169  D(42,43,44,45)       -179.7416         estimate D2E/DX2                !
 ! D170  D(42,43,44,90)          0.0782         estimate D2E/DX2                !
 ! D171  D(89,43,44,45)         -0.0029         estimate D2E/DX2                !
 ! D172  D(89,43,44,90)        179.8169         estimate D2E/DX2                !
 ! D173  D(43,44,45,46)        179.6242         estimate D2E/DX2                !
 ! D174  D(43,44,45,91)         -0.2949         estimate D2E/DX2                !
 ! D175  D(90,44,45,46)         -0.1965         estimate D2E/DX2                !
 ! D176  D(90,44,45,91)        179.8845         estimate D2E/DX2                !
 ! D177  D(44,45,46,92)          0.0097         estimate D2E/DX2                !
 ! D178  D(44,45,46,93)       -179.9421         estimate D2E/DX2                !
 ! D179  D(91,45,46,92)        179.9295         estimate D2E/DX2                !
 ! D180  D(91,45,46,93)         -0.0223         estimate D2E/DX2                !
 --------------------------------------------------------------------------------
 Trust Radius=3.00D-01 FncErr=1.00D-07 GrdErr=1.00D-06 EigMax=2.50D+02 EigMin=1.00D-04
 Number of steps in this run=    421 maximum allowed number of steps=    564.
 GradGradGradGradGradGradGradGradGradGradGradGradGradGradGradGradGradGrad

 Stoichiometry    C46H48
 Framework group  C1[X(C46H48)]
 Deg. of freedom   276
 Full point group                 C1      NOp   1
 Largest Abelian subgroup         C1      NOp   1
 Largest concise Abelian subgroup C1      NOp   1
                         Standard orientation:                         
 ---------------------------------------------------------------------
 Center     Atomic      Atomic             Coordinates (Angstroms)
 Number     Number       Type             X           Y           Z
 ---------------------------------------------------------------------
      1          6           0       25.500446   -1.496165    1.875311
      2          6           0       24.579620   -0.543244    1.711519
      3          6           0       23.184896   -0.879759    1.355376
      4          6           0       22.266638    0.090351    1.199302
      5          6           0       20.837315   -0.128211    0.848110
      6          6           0       20.273861   -1.334537    0.627061
      7          6           0       18.842129   -1.554337    0.286295
      8          6           0       17.916694   -0.586388    0.159810
      9          6           0       16.512465   -0.923287   -0.163853
     10          6           0       15.582066    0.043304   -0.259516
     11          6           0       14.139809   -0.177923   -0.549738
     12          6           0       13.575341   -1.380927   -0.787063
     13          6           0       12.125654   -1.603123   -1.041841
     14          6           0       11.184729   -0.642315   -1.044917
     15          6           0        9.760927   -0.978345   -1.262697
     16          6           0        8.818678   -0.027851   -1.204149
     17          6           0        7.386280   -0.355550   -1.363741
     18          6           0        6.454068    0.596730   -1.229029
     19          6           0        5.012561    0.283992   -1.323615
     20          6           0        4.099496    1.239433   -1.105652
     21          6           0        2.650689    0.947642   -1.131822
     22          6           0        1.766861    1.908171   -0.830282
     23          6           0        0.312205    1.644727   -0.788308
     24          6           0       -0.529258    2.621631   -0.407597
     25          6           0       -2.002555    2.494386   -0.270898
     26          6           0       -2.720390    1.386023   -0.551870
     27          6           0       -4.197487    1.268053   -0.375921
     28          6           0       -4.983005    2.233648    0.146994
     29          6           0       -6.451196    2.136622    0.355508
     30          6           0       -7.227182    1.087261    0.010137
     31          6           0       -8.700329    1.016382    0.237553
     32          6           0       -9.422393    1.963702    0.873340
     33          6           0      -10.888224    1.914749    1.106769
     34          6           0      -11.720135    0.946563    0.685474
     35          6           0      -13.165913    1.044277    0.981776
     36          6           0      -14.041476    0.130118    0.543623
     37          6           0      -15.481189    0.277283    0.845299
     38          6           0      -16.388767   -0.592597    0.383548
     39          6           0      -17.823527   -0.405073    0.686249
     40          6           0      -18.754562   -1.237497    0.202737
     41          6           0      -20.185248   -1.020141    0.504536
     42          6           0      -21.131384   -1.825116    0.004064
     43          6           0      -22.559315   -1.589132    0.304547
     44          6           0      -23.513430   -2.377886   -0.206577
     45          6           0      -24.939330   -2.132946    0.093289
     46          6           0      -25.896281   -2.910282   -0.418445
     47          1           0       25.251510   -2.546009    1.751408
     48          1           0       24.869800    0.495439    1.845640
     49          1           0       22.929180   -1.924455    1.228272
     50          1           0       22.572193    1.123807    1.340652
     51          1           0       20.242409    0.772509    0.777736
     52          1           0       20.869383   -2.234935    0.696535
     53          1           0       18.538589   -2.587585    0.139840
     54          1           0       18.171531    0.456532    0.301779
     55          1           0       16.256195   -1.965923   -0.305673
     56          1           0       15.884347    1.074968   -0.099474
     57          1           0       13.534506    0.718478   -0.550611
     58          1           0       14.182186   -2.276534   -0.788871
     59          1           0       11.820504   -2.631544   -1.215935
     60          1           0       11.439472    0.394422   -0.863804
     61          1           0        9.475962   -2.011988   -1.444497
     62          1           0        9.106158    1.002538   -1.006697
     63          1           0        7.089083   -1.382804   -1.561045
     64          1           0        6.758926    1.618725   -1.014342
     65          1           0        4.695176   -0.733409   -1.539370
     66          1           0        4.428107    2.250042   -0.872604
     67          1           0        2.306458   -0.056771   -1.366167
     68          1           0        2.127064    2.904048   -0.580776
     69          1           0       -0.047200    0.654036   -1.040695
     70          1           0       -0.114696    3.592910   -0.149585
     71          1           0       -2.490518    3.386581    0.094476
     72          1           0       -2.223321    0.500604   -0.927648
     73          1           0       -4.629276    0.324068   -0.682532
     74          1           0       -4.553826    3.170979    0.470871
     75          1           0       -6.887077    3.007219    0.824384
     76          1           0       -6.788265    0.223293   -0.472147
     77          1           0       -9.188820    0.127308   -0.140741
     78          1           0       -8.942164    2.847922    1.267028
     79          1           0      -11.304551    2.752130    1.661189
     80          1           0      -11.358626    0.095806    0.119723
     81          1           0      -13.526102    1.891034    1.562415
     82          1           0      -13.697561   -0.716042   -0.046431
     83          1           0      -15.808342    1.122135    1.447728
     84          1           0      -16.073385   -1.435051   -0.227502
     85          1           0      -18.126184    0.435401    1.307207
     86          1           0      -18.460227   -2.075231   -0.425169
     87          1           0      -20.471192   -0.184437    1.139585
     88          1           0      -20.850485   -2.658525   -0.635721
     89          1           0      -22.835844   -0.757267    0.948680
     90          1           0      -23.240120   -3.208522   -0.853300
     91          1           0      -25.222897   -1.306701    0.739925
     92          1           0      -25.654042   -3.744934   -1.069606
     93          1           0      -26.937608   -2.711897   -0.185881
     94          1           0       26.518476   -1.226852    2.137583
 ---------------------------------------------------------------------
 Rotational constants (GHZ):           0.2974825           0.0036068           0.0035859
 Standard basis: 6-31G(d,p) (6D, 7F)
 There are   930 symmetry adapted cartesian basis functions of A   symmetry.
 There are   930 symmetry adapted basis functions of A   symmetry.
   930 basis functions,  1624 primitive gaussians,   930 cartesian basis functions
   162 alpha electrons      162 beta electrons
       nuclear repulsion energy      3340.7183362566 Hartrees.
 NAtoms=   94 NActive=   94 NUniq=   94 SFac= 1.00D+00 NAtFMM=   60 NAOKFM=T Big=T
 Integral buffers will be    131072 words long.
 Raffenetti 2 integral format.
 Two-electron integral symmetry is turned on.
 One-electron integrals computed using PRISM.
 NBasis=   930 RedAO= T EigKep=  7.35D-04  NBF=   930
 NBsUse=   930 1.00D-06 EigRej= -1.00D+00 NBFU=   930
 ExpMin= 1.61D-01 ExpMax= 3.05D+03 ExpMxC= 4.57D+02 IAcc=3 IRadAn=         5 AccDes= 0.00D+00
 Harris functional with IExCor=  402 and IRadAn=       5 diagonalized for initial guess.
 HarFok:  IExCor=  402 AccDes= 0.00D+00 IRadAn=         5 IDoV= 1 UseB2=F ITyADJ=14
 ICtDFT=  3500011 ScaDFX=  1.000000  1.000000  1.000000  1.000000
 FoFCou: FMM=F IPFlag=           0 FMFlag=      100000 FMFlg1=        2001
         NFxFlg=           0 DoJE=T BraDBF=F KetDBF=T FulRan=T
         wScrn=  0.000000 ICntrl=       500 IOpCl=  0 I1Cent=   200000004 NGrid=           0
         NMat0=    1 NMatS0=      1 NMatT0=    0 NMatD0=    1 NMtDS0=    0 NMtDT0=    0
 Petite list used in FoFCou.
 Requested convergence on RMS density matrix=1.00D-08 within 128 cycles.
 Requested convergence on MAX density matrix=1.00D-06.
 Requested convergence on             energy=1.00D-06.
 No special actions if energy rises.
 Integral accuracy reduced to 1.0D-05 until final iterations.
 Initial convergence to 1.0D-05 achieved.  Increase integral accuracy.
 SCF Done:  E(RB3LYP) =  -1781.52877996     A.U. after   13 cycles
            NFock= 13  Conv=0.78D-08     -V/T= 2.0102

 **********************************************************************

            Population analysis using the SCF Density.

 **********************************************************************

 Orbital symmetries:
       Occupied  (A) (A) (A) (A) (A) (A) (A) (A) (A) (A) (A) (A)
                 (A) (A) (A) (A) (A) (A) (A) (A) (A) (A) (A) (A)
                 (A) (A) (A) (A) (A) (A) (A) (A) (A) (A) (A) (A)
                 (A) (A) (A) (A) (A) (A) (A) (A) (A) (A) (A) (A)
                 (A) (A) (A) (A) (A) (A) (A) (A) (A) (A) (A) (A)
                 (A) (A) (A) (A) (A) (A) (A) (A) (A) (A) (A) (A)
                 (A) (A) (A) (A) (A) (A) (A) (A) (A) (A) (A) (A)
                 (A) (A) (A) (A) (A) (A) (A) (A) (A) (A) (A) (A)
                 (A) (A) (A) (A) (A) (A) (A) (A) (A) (A) (A) (A)
                 (A) (A) (A) (A) (A) (A) (A) (A) (A) (A) (A) (A)
                 (A) (A) (A) (A) (A) (A) (A) (A) (A) (A) (A) (A)
                 (A) (A) (A) (A) (A) (A) (A) (A) (A) (A) (A) (A)
                 (A) (A) (A) (A) (A) (A) (A) (A) (A) (A) (A) (A)
                 (A) (A) (A) (A) (A) (A)
       Virtual   (A) (A) (A) (A) (A) (A) (A) (A) (A) (A) (A) (A)
                 (A) (A) (A) (A) (A) (A) (A) (A) (A) (A) (A) (A)
                 (A) (A) (A) (A) (A) (A) (A) (A) (A) (A) (A) (A)
                 (A) (A) (A) (A) (A) (A) (A) (A) (A) (A) (A) (A)
                 (A) (A) (A) (A) (A) (A) (A) (A) (A) (A) (A) (A)
                 (A) (A) (A) (A) (A) (A) (A) (A) (A) (A) (A) (A)
                 (A) (A) (A) (A) (A) (A) (A) (A) (A) (A) (A) (A)
                 (A) (A) (A) (A) (A) (A) (A) (A) (A) (A) (A) (A)
                 (A) (A) (A) (A) (A) (A) (A) (A) (A) (A) (A) (A)
                 (A) (A) (A) (A) (A) (A) (A) (A) (A) (A) (A) (A)
                 (A) (A) (A) (A) (A) (A) (A) (A) (A) (A) (A) (A)
                 (A) (A) (A) (A) (A) (A) (A) (A) (A) (A) (A) (A)
                 (A) (A) (A) (A) (A) (A) (A) (A) (A) (A) (A) (A)
                 (A) (A) (A) (A) (A) (A) (A) (A) (A) (A) (A) (A)
                 (A) (A) (A) (A) (A) (A) (A) (A) (A) (A) (A) (A)
                 (A) (A) (A) (A) (A) (A) (A) (A) (A) (A) (A) (A)
                 (A) (A) (A) (A) (A) (A) (A) (A) (A) (A) (A) (A)
                 (A) (A) (A) (A) (A) (A) (A) (A) (A) (A) (A) (A)
                 (A) (A) (A) (A) (A) (A) (A) (A) (A) (A) (A) (A)
                 (A) (A) (A) (A) (A) (A) (A) (A) (A) (A) (A) (A)
                 (A) (A) (A) (A) (A) (A) (A) (A) (A) (A) (A) (A)
                 (A) (A) (A) (A) (A) (A) (A) (A) (A) (A) (A) (A)
                 (A) (A) (A) (A) (A) (A) (A) (A) (A) (A) (A) (A)
                 (A) (A) (A) (A) (A) (A) (A) (A) (A) (A) (A) (A)
                 (A) (A) (A) (A) (A) (A) (A) (A) (A) (A) (A) (A)
                 (A) (A) (A) (A) (A) (A) (A) (A) (A) (A) (A) (A)
                 (A) (A) (A) (A) (A) (A) (A) (A) (A) (A) (A) (A)
                 (A) (A) (A) (A) (A) (A) (A) (A) (A) (A) (A) (A)
                 (A) (A) (A) (A) (A) (A) (A) (A) (A) (A) (A) (A)
                 (A) (A) (A) (A) (A) (A) (A) (A) (A) (A) (A) (A)
                 (A) (A) (A) (A) (A) (A) (A) (A) (A) (A) (A) (A)
                 (A) (A) (A) (A) (A) (A) (A) (A) (A) (A) (A) (A)
                 (A) (A) (A) (A) (A) (A) (A) (A) (A) (A) (A) (A)
                 (A) (A) (A) (A) (A) (A) (A) (A) (A) (A) (A) (A)
                 (A) (A) (A) (A) (A) (A) (A) (A) (A) (A) (A) (A)
                 (A) (A) (A) (A) (A) (A) (A) (A) (A) (A) (A) (A)
                 (A) (A) (A) (A) (A) (A) (A) (A) (A) (A) (A) (A)
                 (A) (A) (A) (A) (A) (A) (A) (A) (A) (A) (A) (A)
                 (A) (A) (A) (A) (A) (A) (A) (A) (A) (A) (A) (A)
                 (A) (A) (A) (A) (A) (A) (A) (A) (A) (A) (A) (A)
                 (A) (A) (A) (A) (A) (A) (A) (A) (A) (A) (A) (A)
                 (A) (A) (A) (A) (A) (A) (A) (A) (A) (A) (A) (A)
                 (A) (A) (A) (A) (A) (A) (A) (A) (A) (A) (A) (A)
                 (A) (A) (A) (A) (A) (A) (A) (A) (A) (A) (A) (A)
                 (A) (A) (A) (A) (A) (A) (A) (A) (A) (A) (A) (A)
                 (A) (A) (A) (A) (A) (A) (A) (A) (A) (A) (A) (A)
                 (A) (A) (A) (A) (A) (A) (A) (A) (A) (A) (A) (A)
                 (A) (A) (A) (A) (A) (A) (A) (A) (A) (A) (A) (A)
                 (A) (A) (A) (A) (A) (A) (A) (A) (A) (A) (A) (A)
                 (A) (A) (A) (A) (A) (A) (A) (A) (A) (A) (A) (A)
                 (A) (A) (A) (A) (A) (A) (A) (A) (A) (A) (A) (A)
                 (A) (A) (A) (A) (A) (A) (A) (A) (A) (A) (A) (A)
                 (A) (A) (A) (A) (A) (A) (A) (A) (A) (A) (A) (A)
                 (A) (A) (A) (A) (A) (A) (A) (A) (A) (A) (A) (A)
                 (A) (A) (A) (A) (A) (A) (A) (A) (A) (A) (A) (A)
                 (A) (A) (A) (A) (A) (A) (A) (A) (A) (A) (A) (A)
                 (A) (A) (A) (A) (A) (A) (A) (A) (A) (A) (A) (A)
                 (A) (A) (A) (A) (A) (A) (A) (A) (A) (A) (A) (A)
                 (A) (A) (A) (A) (A) (A) (A) (A) (A) (A) (A) (A)
                 (A) (A) (A) (A) (A) (A) (A) (A) (A) (A) (A) (A)
                 (A) (A) (A) (A) (A) (A) (A) (A) (A) (A) (A) (A)
                 (A) (A) (A) (A) (A) (A) (A) (A) (A) (A) (A) (A)
                 (A) (A) (A) (A) (A) (A) (A) (A) (A) (A) (A) (A)
                 (A) (A) (A) (A) (A) (A) (A) (A) (A) (A) (A) (A)
 The electronic state is 1-A.
 Alpha  occ. eigenvalues --  -10.19434 -10.19429 -10.19396 -10.19394 -10.19320
 Alpha  occ. eigenvalues --  -10.19313 -10.19305 -10.19304 -10.19290 -10.19278
 Alpha  occ. eigenvalues --  -10.19260 -10.19250 -10.19247 -10.19233 -10.19232
 Alpha  occ. eigenvalues --  -10.19227 -10.19227 -10.19224 -10.19216 -10.19213
 Alpha  occ. eigenvalues --  -10.19210 -10.19203 -10.19199 -10.19196 -10.19191
 Alpha  occ. eigenvalues --  -10.19190 -10.19184 -10.19171 -10.19164 -10.19146
 Alpha  occ. eigenvalues --  -10.19144 -10.19131 -10.19130 -10.19121 -10.19108
 Alpha  occ. eigenvalues --  -10.19106 -10.19097 -10.19093 -10.19086 -10.19078
 Alpha  occ. eigenvalues --  -10.19069 -10.19034 -10.19005 -10.18925 -10.17980
 Alpha  occ. eigenvalues --  -10.17904  -0.82961  -0.82871  -0.82640  -0.82410
 Alpha  occ. eigenvalues --   -0.82152  -0.81770  -0.81366  -0.80905  -0.80369
 Alpha  occ. eigenvalues --   -0.79751  -0.79098  -0.78387  -0.77620  -0.76794
 Alpha  occ. eigenvalues --   -0.75940  -0.75039  -0.74114  -0.73114  -0.72052
 Alpha  occ. eigenvalues --   -0.71057  -0.70193  -0.69009  -0.68288  -0.65145
 Alpha  occ. eigenvalues --   -0.64317  -0.62788  -0.62106  -0.61405  -0.60085
 Alpha  occ. eigenvalues --   -0.58870  -0.57772  -0.57651  -0.57014  -0.56874
 Alpha  occ. eigenvalues --   -0.56838  -0.56187  -0.56041  -0.55868  -0.55341
 Alpha  occ. eigenvalues --   -0.55132  -0.55002  -0.54498  -0.52775  -0.52530
 Alpha  occ. eigenvalues --   -0.51920  -0.50154  -0.50098  -0.48960  -0.48378
 Alpha  occ. eigenvalues --   -0.48290  -0.47755  -0.47467  -0.47018  -0.46640
 Alpha  occ. eigenvalues --   -0.46290  -0.45549  -0.45535  -0.44814  -0.44563
 Alpha  occ. eigenvalues --   -0.44020  -0.43464  -0.43190  -0.42906  -0.41946
 Alpha  occ. eigenvalues --   -0.41501  -0.41025  -0.40617  -0.40428  -0.39537
 Alpha  occ. eigenvalues --   -0.39492  -0.39105  -0.38926  -0.38537  -0.38211
 Alpha  occ. eigenvalues --   -0.37875  -0.37771  -0.37530  -0.37188  -0.36988
 Alpha  occ. eigenvalues --   -0.36598  -0.36350  -0.36033  -0.35856  -0.35689
 Alpha  occ. eigenvalues --   -0.35288  -0.35286  -0.35181  -0.35138  -0.34894
 Alpha  occ. eigenvalues --   -0.34828  -0.34639  -0.34494  -0.34435  -0.34268
 Alpha  occ. eigenvalues --   -0.34112  -0.33798  -0.33770  -0.33291  -0.33204
 Alpha  occ. eigenvalues --   -0.33190  -0.32702  -0.32023  -0.31237  -0.30406
 Alpha  occ. eigenvalues --   -0.29499  -0.28521  -0.27465  -0.26356  -0.25179
 Alpha  occ. eigenvalues --   -0.23950  -0.22659  -0.21345  -0.20014  -0.18754
 Alpha  occ. eigenvalues --   -0.17584  -0.16743
 Alpha virt. eigenvalues --   -0.08578  -0.07645  -0.06177  -0.04910  -0.03607
 Alpha virt. eigenvalues --   -0.01981  -0.00443   0.00983   0.02154   0.03488
 Alpha virt. eigenvalues --    0.04671   0.05821   0.06998   0.07678   0.07791
 Alpha virt. eigenvalues --    0.07947   0.08341   0.08368   0.08690   0.08982
 Alpha virt. eigenvalues --    0.09075   0.09505   0.09634   0.09707   0.09900
 Alpha virt. eigenvalues --    0.10270   0.10969   0.11673   0.11687   0.11951
 Alpha virt. eigenvalues --    0.12056   0.12123   0.12425   0.12465   0.12596
 Alpha virt. eigenvalues --    0.12667   0.13040   0.13114   0.13154   0.13278
 Alpha virt. eigenvalues --    0.13910   0.14022   0.14184   0.14257   0.14329
 Alpha virt. eigenvalues --    0.14466   0.14610   0.14720   0.14897   0.15232
 Alpha virt. eigenvalues --    0.15442   0.15486   0.15790   0.16193   0.16400
 Alpha virt. eigenvalues --    0.16873   0.17736   0.18254   0.19063   0.19480
 Alpha virt. eigenvalues --    0.19748   0.19958   0.20605   0.21055   0.21225
 Alpha virt. eigenvalues --    0.21991   0.22511   0.22643   0.22837   0.24784
 Alpha virt. eigenvalues --    0.25740   0.25884   0.27138   0.27271   0.27525
 Alpha virt. eigenvalues --    0.28298   0.28525   0.28645   0.28987   0.30048
 Alpha virt. eigenvalues --    0.30575   0.31276   0.31717   0.31859   0.32226
 Alpha virt. eigenvalues --    0.32645   0.32698   0.33238   0.33503   0.33748
 Alpha virt. eigenvalues --    0.34938   0.35631   0.35973   0.36205   0.36435
 Alpha virt. eigenvalues --    0.36756   0.37233   0.38107   0.38482   0.38980
 Alpha virt. eigenvalues --    0.39158   0.39740   0.40722   0.41240   0.41516
 Alpha virt. eigenvalues --    0.41708   0.41841   0.42047   0.42471   0.43483
 Alpha virt. eigenvalues --    0.44426   0.44935   0.45536   0.47111   0.47745
 Alpha virt. eigenvalues --    0.48251   0.49131   0.49293   0.50867   0.51324
 Alpha virt. eigenvalues --    0.51424   0.51637   0.51828   0.52026   0.52383
 Alpha virt. eigenvalues --    0.52540   0.52830   0.53061   0.53319   0.53709
 Alpha virt. eigenvalues --    0.53842   0.54308   0.54460   0.54841   0.55074
 Alpha virt. eigenvalues --    0.55177   0.55755   0.55975   0.56026   0.56477
 Alpha virt. eigenvalues --    0.56810   0.57162   0.57280   0.57389   0.57490
 Alpha virt. eigenvalues --    0.57773   0.58118   0.58301   0.58597   0.58719
 Alpha virt. eigenvalues --    0.58811   0.58947   0.58977   0.59217   0.59313
 Alpha virt. eigenvalues --    0.59461   0.59484   0.60317   0.60393   0.60691
 Alpha virt. eigenvalues --    0.60892   0.60901   0.61027   0.61170   0.61485
 Alpha virt. eigenvalues --    0.61715   0.61931   0.62070   0.62367   0.62663
 Alpha virt. eigenvalues --    0.63004   0.63286   0.63501   0.63783   0.64241
 Alpha virt. eigenvalues --    0.64409   0.64490   0.64602   0.65093   0.65149
 Alpha virt. eigenvalues --    0.65200   0.65400   0.65489   0.65675   0.65796
 Alpha virt. eigenvalues --    0.66090   0.66166   0.66266   0.66463   0.66649
 Alpha virt. eigenvalues --    0.66662   0.67395   0.67900   0.68021   0.68291
 Alpha virt. eigenvalues --    0.68660   0.69059   0.69250   0.69789   0.70350
 Alpha virt. eigenvalues --    0.70717   0.71862   0.72297   0.72805   0.73874
 Alpha virt. eigenvalues --    0.74311   0.75251   0.75403   0.75816   0.76215
 Alpha virt. eigenvalues --    0.78757   0.78776   0.79470   0.79590   0.80165
 Alpha virt. eigenvalues --    0.80636   0.81000   0.81526   0.81737   0.81965
 Alpha virt. eigenvalues --    0.82032   0.82626   0.83040   0.83448   0.83804
 Alpha virt. eigenvalues --    0.83904   0.84438   0.84559   0.84662   0.84823
 Alpha virt. eigenvalues --    0.85082   0.85456   0.85542   0.85725   0.86025
 Alpha virt. eigenvalues --    0.86242   0.86476   0.86720   0.86977   0.87161
 Alpha virt. eigenvalues --    0.87262   0.87400   0.87604   0.87685   0.87948
 Alpha virt. eigenvalues --    0.88340   0.88471   0.88706   0.89106   0.89312
 Alpha virt. eigenvalues --    0.89794   0.90647   0.90765   0.90976   0.91204
 Alpha virt. eigenvalues --    0.91519   0.91736   0.92052   0.92312   0.92872
 Alpha virt. eigenvalues --    0.93004   0.93173   0.93658   0.94057   0.94453
 Alpha virt. eigenvalues --    0.94980   0.95367   0.95722   0.96233   0.96520
 Alpha virt. eigenvalues --    0.96964   0.97519   0.97534   0.98733   1.00835
 Alpha virt. eigenvalues --    1.02422   1.02614   1.02978   1.03257   1.03408
 Alpha virt. eigenvalues --    1.03480   1.03963   1.04295   1.04559   1.05130
 Alpha virt. eigenvalues --    1.05569   1.06043   1.06178   1.06574   1.07187
 Alpha virt. eigenvalues --    1.07605   1.07735   1.07949   1.08575   1.09143
 Alpha virt. eigenvalues --    1.09455   1.10047   1.10317   1.10684   1.10939
 Alpha virt. eigenvalues --    1.11265   1.11771   1.12182   1.14392   1.15669
 Alpha virt. eigenvalues --    1.17093   1.17343   1.18092   1.18730   1.18852
 Alpha virt. eigenvalues --    1.19180   1.20479   1.21062   1.21241   1.21840
 Alpha virt. eigenvalues --    1.22554   1.23979   1.24427   1.26532   1.27628
 Alpha virt. eigenvalues --    1.28034   1.28148   1.28817   1.28908   1.29241
 Alpha virt. eigenvalues --    1.29446   1.29840   1.29932   1.30001   1.30246
 Alpha virt. eigenvalues --    1.30418   1.30630   1.30839   1.31055   1.31234
 Alpha virt. eigenvalues --    1.31321   1.31382   1.31492   1.31688   1.32159
 Alpha virt. eigenvalues --    1.32408   1.32419   1.32537   1.32743   1.32792
 Alpha virt. eigenvalues --    1.32846   1.33070   1.33342   1.33721   1.33966
 Alpha virt. eigenvalues --    1.34622   1.34814   1.35850   1.36601   1.37166
 Alpha virt. eigenvalues --    1.37373   1.37641   1.38412   1.38538   1.40017
 Alpha virt. eigenvalues --    1.40815   1.41140   1.42100   1.42965   1.43404
 Alpha virt. eigenvalues --    1.43855   1.43949   1.44232   1.44988   1.45394
 Alpha virt. eigenvalues --    1.45716   1.45936   1.46519   1.46860   1.47132
 Alpha virt. eigenvalues --    1.48010   1.48489   1.48641   1.48755   1.49294
 Alpha virt. eigenvalues --    1.49592   1.50351   1.50484   1.50570   1.50635
 Alpha virt. eigenvalues --    1.51451   1.51833   1.51873   1.52448   1.52544
 Alpha virt. eigenvalues --    1.53440   1.57462   1.61036   1.62431   1.67971
 Alpha virt. eigenvalues --    1.73960   1.74936   1.75321   1.75663   1.75781
 Alpha virt. eigenvalues --    1.76156   1.76351   1.76491   1.76565   1.76625
 Alpha virt. eigenvalues --    1.76775   1.76938   1.77122   1.77418   1.77941
 Alpha virt. eigenvalues --    1.77991   1.78100   1.78151   1.78489   1.78768
 Alpha virt. eigenvalues --    1.78988   1.79406   1.83021   1.83093   1.85422
 Alpha virt. eigenvalues --    1.85657   1.85861   1.85956   1.86264   1.86462
 Alpha virt. eigenvalues --    1.87819   1.88540   1.88986   1.89744   1.89917
 Alpha virt. eigenvalues --    1.89977   1.91292   1.91934   1.92077   1.92605
 Alpha virt. eigenvalues --    1.92670   1.92755   1.92899   1.93163   1.93714
 Alpha virt. eigenvalues --    1.93816   1.93982   1.94330   1.94425   1.94595
 Alpha virt. eigenvalues --    1.94705   1.94819   1.95951   1.96127   1.96504
 Alpha virt. eigenvalues --    1.96600   1.96649   1.97375   1.97853   1.98141
 Alpha virt. eigenvalues --    1.98677   1.98828   2.00560   2.02164   2.02506
 Alpha virt. eigenvalues --    2.03157   2.03375   2.03847   2.04262   2.04611
 Alpha virt. eigenvalues --    2.05406   2.05765   2.06249   2.07270   2.07540
 Alpha virt. eigenvalues --    2.07960   2.08652   2.08793   2.09286   2.10033
 Alpha virt. eigenvalues --    2.10111   2.10262   2.10814   2.11297   2.11759
 Alpha virt. eigenvalues --    2.12206   2.13464   2.14124   2.14542   2.15113
 Alpha virt. eigenvalues --    2.15144   2.15669   2.16325   2.16627   2.17598
 Alpha virt. eigenvalues --    2.17998   2.18158   2.18380   2.18506   2.19686
 Alpha virt. eigenvalues --    2.19981   2.20661   2.21076   2.21802   2.22095
 Alpha virt. eigenvalues --    2.22109   2.22492   2.23108   2.23453   2.24284
 Alpha virt. eigenvalues --    2.24383   2.24881   2.25544   2.26295   2.27120
 Alpha virt. eigenvalues --    2.27531   2.28363   2.28981   2.29480   2.30271
 Alpha virt. eigenvalues --    2.30887   2.31652   2.32593   2.32971   2.33714
 Alpha virt. eigenvalues --    2.34415   2.34823   2.35746   2.36471   2.36904
 Alpha virt. eigenvalues --    2.37226   2.37847   2.38242   2.38323   2.40442
 Alpha virt. eigenvalues --    2.41608   2.41628   2.42387   2.44045   2.44371
 Alpha virt. eigenvalues --    2.44650   2.44849   2.44978   2.45271   2.45944
 Alpha virt. eigenvalues --    2.46386   2.46614   2.46940   2.47428   2.47877
 Alpha virt. eigenvalues --    2.48134   2.48377   2.48457   2.48635   2.48874
 Alpha virt. eigenvalues --    2.49698   2.49784   2.50263   2.50396   2.50529
 Alpha virt. eigenvalues --    2.50867   2.51324   2.51539   2.51812   2.52098
 Alpha virt. eigenvalues --    2.52506   2.52750   2.52767   2.53512   2.53617
 Alpha virt. eigenvalues --    2.54124   2.54514   2.54653   2.55236   2.55389
 Alpha virt. eigenvalues --    2.55697   2.56161   2.56319   2.56498   2.56574
 Alpha virt. eigenvalues --    2.57249   2.57390   2.57939   2.58165   2.58804
 Alpha virt. eigenvalues --    2.59139   2.59236   2.59747   2.60096   2.60623
 Alpha virt. eigenvalues --    2.60820   2.60897   2.61160   2.61873   2.62359
 Alpha virt. eigenvalues --    2.62409   2.62799   2.63384   2.63453   2.63749
 Alpha virt. eigenvalues --    2.64200   2.64489   2.65086   2.65365   2.66108
 Alpha virt. eigenvalues --    2.66396   2.67058   2.67131   2.67453   2.67590
 Alpha virt. eigenvalues --    2.68151   2.68376   2.68525   2.68886   2.69112
 Alpha virt. eigenvalues --    2.69278   2.69626   2.70023   2.70165   2.70346
 Alpha virt. eigenvalues --    2.70569   2.70655   2.71165   2.71467   2.71510
 Alpha virt. eigenvalues --    2.71854   2.72154   2.72758   2.73399   2.74197
 Alpha virt. eigenvalues --    2.75506   2.76287   2.78725   2.79053   2.79829
 Alpha virt. eigenvalues --    2.82104   2.82681   2.83866   2.84756   2.86356
 Alpha virt. eigenvalues --    2.86528   2.86629   2.87512   2.88897   2.89537
 Alpha virt. eigenvalues --    2.90609   2.90870   2.91221   2.91323   2.91796
 Alpha virt. eigenvalues --    2.92149   2.92532   2.92815   2.93759   2.94268
 Alpha virt. eigenvalues --    2.94584   2.94822   2.95610   2.96215   2.96828
 Alpha virt. eigenvalues --    2.97319   2.97559   2.98342   2.99028   2.99702
 Alpha virt. eigenvalues --    2.99793   2.99839   2.99927   3.00423   3.00913
 Alpha virt. eigenvalues --    3.01266   3.02966   3.03297   3.05238   3.10890
 Alpha virt. eigenvalues --    3.16019   3.16148   3.16384   3.20259   3.27930
 Alpha virt. eigenvalues --    3.28039   3.32638   3.32910   3.33093   3.33272
 Alpha virt. eigenvalues --    3.33290   3.33635   3.33782   3.34869   3.35407
 Alpha virt. eigenvalues --    3.35500   3.35592   3.36546   3.37442   3.38576
 Alpha virt. eigenvalues --    3.40412   3.40882   3.41247   3.44243   3.44622
 Alpha virt. eigenvalues --    3.45391   3.49072   3.50345   3.51395   3.52632
 Alpha virt. eigenvalues --    3.52806   3.54087   3.54896   3.55376   3.56156
 Alpha virt. eigenvalues --    3.56504   3.58806   3.59807   3.60447   3.61269
 Alpha virt. eigenvalues --    3.62193   3.63596   3.65463   3.65935   3.66407
 Alpha virt. eigenvalues --    3.66919   3.69738   3.71046   3.72875   3.74180
 Alpha virt. eigenvalues --    3.76152   3.79240   4.10820   4.11632   4.11989
 Alpha virt. eigenvalues --    4.12246   4.13549   4.13751   4.13796   4.13937
 Alpha virt. eigenvalues --    4.13975   4.14181   4.14354   4.14643   4.15073
 Alpha virt. eigenvalues --    4.15505   4.16066   4.16539   4.17249   4.18039
 Alpha virt. eigenvalues --    4.19081   4.19986   4.20890   4.21889   4.25776
 Alpha virt. eigenvalues --    4.26684   4.28901   4.30790   4.32780   4.34927
 Alpha virt. eigenvalues --    4.37090   4.39654   4.42431   4.44992   4.47702
 Alpha virt. eigenvalues --    4.50509   4.53561   4.56599   4.59383   4.62126
 Alpha virt. eigenvalues --    4.64720   4.67366   4.69763   4.71802   4.73469
 Alpha virt. eigenvalues --    4.74741   4.75883   4.76646
          Condensed to atoms (all electrons):
 Mulliken charges:
               1
     1  C   -0.254832
     2  C   -0.029919
     3  C   -0.055309
     4  C   -0.103000
     5  C   -0.081547
     6  C   -0.077825
     7  C   -0.110786
     8  C   -0.052230
     9  C   -0.052780
    10  C   -0.110064
    11  C   -0.079251
    12  C   -0.080814
    13  C   -0.107293
    14  C   -0.056383
    15  C   -0.075784
    16  C   -0.083274
    17  C   -0.079296
    18  C   -0.080038
    19  C   -0.078622
    20  C   -0.080737
    21  C   -0.081573
    22  C   -0.077416
    23  C   -0.055823
    24  C   -0.105841
    25  C   -0.075614
    26  C   -0.085800
    27  C   -0.082935
    28  C   -0.078594
    29  C   -0.078705
    30  C   -0.082896
    31  C   -0.085886
    32  C   -0.075457
    33  C   -0.105926
    34  C   -0.055726
    35  C   -0.077561
    36  C   -0.081500
    37  C   -0.080836
    38  C   -0.078522
    39  C   -0.080504
    40  C   -0.079411
    41  C   -0.079510
    42  C   -0.080554
    43  C   -0.077051
    44  C   -0.077801
    45  C   -0.033661
    46  C   -0.252022
    47  H    0.095613
    48  H    0.084595
    49  H    0.082896
    50  H    0.081409
    51  H    0.079355
    52  H    0.079760
    53  H    0.080388
    54  H    0.082266
    55  H    0.082219
    56  H    0.080145
    57  H    0.078767
    58  H    0.079349
    59  H    0.080202
    60  H    0.081153
    61  H    0.080907
    62  H    0.079994
    63  H    0.080835
    64  H    0.080120
    65  H    0.080819
    66  H    0.080346
    67  H    0.080927
    68  H    0.080864
    69  H    0.082215
    70  H    0.080243
    71  H    0.080244
    72  H    0.079888
    73  H    0.081014
    74  H    0.080132
    75  H    0.080139
    76  H    0.081021
    77  H    0.079875
    78  H    0.080192
    79  H    0.080175
    80  H    0.082142
    81  H    0.080736
    82  H    0.080785
    83  H    0.080179
    84  H    0.080604
    85  H    0.079970
    86  H    0.080475
    87  H    0.080071
    88  H    0.080666
    89  H    0.080832
    90  H    0.081588
    91  H    0.083634
    92  H    0.095463
    93  H    0.095300
    94  H    0.096397
 Sum of Mulliken charges =  -0.00000
 Mulliken charges with hydrogens summed into heavy atoms:
               1
     1  C   -0.062822
     2  C    0.054677
     3  C    0.027587
     4  C   -0.021591
     5  C   -0.002192
     6  C    0.001935
     7  C   -0.030399
     8  C    0.030036
     9  C    0.029439
    10  C   -0.029919
    11  C   -0.000483
    12  C   -0.001465
    13  C   -0.027091
    14  C    0.024769
    15  C    0.005123
    16  C   -0.003279
    17  C    0.001539
    18  C    0.000082
    19  C    0.002197
    20  C   -0.000391
    21  C   -0.000646
    22  C    0.003448
    23  C    0.026392
    24  C   -0.025598
    25  C    0.004630
    26  C   -0.005912
    27  C   -0.001921
    28  C    0.001538
    29  C    0.001434
    30  C   -0.001875
    31  C   -0.006011
    32  C    0.004734
    33  C   -0.025751
    34  C    0.026416
    35  C    0.003175
    36  C   -0.000715
    37  C   -0.000658
    38  C    0.002082
    39  C   -0.000534
    40  C    0.001064
    41  C    0.000561
    42  C    0.000113
    43  C    0.003782
    44  C    0.003786
    45  C    0.049973
    46  C   -0.061259
 Electronic spatial extent (au):  <R**2>=         274802.3639
 Charge=             -0.0000 electrons
 Dipole moment (field-independent basis, Debye):
    X=             -0.2674    Y=              0.1783    Z=              0.1907  Tot=              0.3737
 Quadrupole moment (field-independent basis, Debye-Ang):
   XX=           -270.8492   YY=           -249.1140   ZZ=           -289.5926
   XY=              0.2447   XZ=              0.3772   YZ=             16.1171
 Traceless Quadrupole moment (field-independent basis, Debye-Ang):
   XX=             -0.9973   YY=             20.7380   ZZ=            -19.7407
   XY=              0.2447   XZ=              0.3772   YZ=             16.1171
 Octapole moment (field-independent basis, Debye-Ang**2):
  XXX=            -67.5818  YYY=              9.2499  ZZZ=              6.3432  XYY=            125.4054
  XXY=            136.3513  XXZ=            210.9540  XZZ=           -106.3469  YZZ=              0.8930
  YYZ=              0.7026  XYZ=           -134.2883
 Hexadecapole moment (field-independent basis, Debye-Ang**3):
 XXXX=        -370297.8411 YYYY=          -3582.8591 ZZZZ=          -1631.1562 XXXY=           -537.1517
 XXXZ=            819.9933 YYYX=           -389.8201 YYYZ=            129.6548 ZZZX=            -89.5227
 ZZZY=             47.9267 XXYY=         -59820.2195 XXZZ=         -67480.3897 YYZZ=           -901.6278
 XXYZ=           3615.6075 YYXZ=            233.1568 ZZXY=             -3.4071
 N-N= 3.340718336257D+03 E-N=-1.080223174032D+04  KE= 1.763618335260D+03
 Calling FoFJK, ICntrl=      2127 FMM=T ISym2X=0 I1Cent= 0 IOpClX= 0 NMat=1 NMatS=1 NMatT=0.
 ***** Axes restored to original set *****
 -------------------------------------------------------------------
 Center     Atomic                   Forces (Hartrees/Bohr)
 Number     Number              X              Y              Z
 -------------------------------------------------------------------
      1        6          -0.008698238    0.001655327   -0.001712383
      2        6           0.015399824   -0.013155815    0.014342411
      3        6          -0.019853242    0.016890522   -0.018396989
      4        6           0.029181779   -0.007897979    0.008074308
      5        6          -0.028177971    0.006406228   -0.006376238
      6        6           0.029715993   -0.006644537    0.006411919
      7        6          -0.033319869    0.006855637   -0.006474294
      8        6           0.029734471   -0.017036228    0.017639414
      9        6          -0.030119438    0.016919996   -0.017373637
     10        6           0.034011653   -0.007974558    0.005627160
     11        6          -0.030305825    0.008560506   -0.006478391
     12        6           0.030187511   -0.008907256    0.006129389
     13        6          -0.034057642    0.008870581   -0.005332071
     14        6           0.028347329   -0.019175518    0.017170725
     15        6          -0.034498992    0.016379351   -0.011799608
     16        6           0.032861581   -0.017163629    0.012064484
     17        6          -0.033067586    0.017758157   -0.011742840
     18        6           0.033140371   -0.018206796    0.010987425
     19        6          -0.032906186    0.018529490   -0.010327821
     20        6           0.033447138   -0.019005574    0.009363487
     21        6          -0.032914656    0.018973109   -0.008396359
     22        6           0.034902506   -0.019180473    0.006441387
     23        6          -0.030331887    0.021020944   -0.011362141
[...]
 0000090,-0.00000191,0.00000078,-0.00000268,-0.00000138,0.00000138,0.00
 000237,0.00000057,-0.00000098,-0.00000073,0.00000274,-0.00000144,0.000
 00085,-0.00000206,0.00000103,-0.00000087,0.00000370,-0.00000200,0.0000
 0088,-0.00000290,0.00000147,-0.00000354,-0.00000202,0.00000206,0.00000
 336,0.00000120,-0.00000159,-0.00000130,0.00000340,-0.00000166,0.000001
 44,-0.00000281,0.00000130,-0.00000107,0.00000381,-0.00000199,0.0000009
 9,-0.00000303,0.00000156,-0.00000069,0.00000432,-0.00000242,0.00000051
 ,-0.00000336,0.00000188,-0.00000018,0.00000491,-0.00000281,0.00000005,
 -0.00000375,0.00000219,0.00000013,0.00000529,-0.00000356,-0.00000018,-
 0.00000362,0.00000233,0.00000082,0.00000891,-0.00000511,0.00000002,-0.
 00000568,0.00000311,-0.00000663,-0.00000682,0.00000553,0.00000547,0.00
 000421,-0.00000406,-0.00000080,0.00001005,-0.00000725,0.00000171,-0.00
 000797,0.00000537,-0.00000946,-0.00000604,0.00000887,0.00000880,0.0000
 0404,-0.00000762,-0.00000350,0.00001164,-0.00001122,0.00000504,-0.0000
 1019,0.00000885,-0.00001133,-0.00000432,0.00000691,0.00001009,0.000000
 98,-0.00000625,-0.00000903,0.00000242,0.00001729,0.00001131,0.00000021
 ,-0.00001123,-0.00002873,-0.00004620,-0.00001127,0.00002283,0.00000985
 ,-0.00001276,0.00005408,0.00014122,0.00017998,0.00007664,-0.00003528,-
 0.00008615,-0.00032975,-0.00101657,-0.00037137,0.00102624,0.00016427,-
 0.00044350,0.00226702,0.00432157,0.00798750,0.02130708,-0.00221820,-0.
 00279123,0.08685404,-0.06915121,0.00356969,-0.00000010,0.00000003,0.00
 000008,0.00000003,-0.00000044,0.00000030,-0.00000006,-0.00000010,0.000
 00013,0.00000031,-0.00000058,0.00000032,-0.00000025,0.00000018,0.00000
 003,0.00000056,0.00000008,-0.00000011,-0.00000024,0.00000003,0.0000001
 1,0.00000016,-0.00000046,0.00000025,-0.00000008,-0.00000011,0.00000007
 ,0.00000037,-0.00000068,0.00000033,-0.00000024,0.00000027,-0.00000007,
 0.00000080,0.00000013,-0.00000025,-0.00000031,0.00000001,0.00000009,0.
 00000022,-0.00000060,0.00000029,-0.00000005,-0.00000019,0.00000013,0.0
 0000021,-0.00000082,0.00000043,0.,-0.00000029,0.00000018,0.00000022,-0
 .00000095,0.00000050,0.00000001,-0.00000037,0.00000022,0.00000025,-0.0
 0000109,0.00000059,0.,-0.00000046,0.00000025,0.00000028,-0.00000123,0.
 00000072,0.,-0.00000045,0.00000046,0.00000076,-0.00000161,0.00000085,-
 0.00000047,0.00000039,-0.00000032,0.00000168,0.00000034,-0.00000063,-0
 .00000050,0.00000005,0.00000060,0.00000117,-0.00000155,0.00000100,-0.0
 0000044,0.00000052,-0.00000037,0.00000218,0.00000031,-0.00000090,-0.00
 000071,0.00000006,0.00000074,0.00000167,-0.00000187,0.00000147,-0.0000
 0049,0.00000080,-0.00000050,0.00000240,0.00000076,-0.00000149,0.000000
 98,0.00000145,-0.00000043,0.00000316,0.00000120,-0.00000243,0.00000043
 ,-0.00000047,-0.00000246,0.00000445,0.00000218,-0.00000279,0.00000588,
 0.00001354,0.00000828,0.00000536,0.00000259,-0.00000515,-0.00001781,-0
 .00004076,-0.00003256,0.00000906,0.00002227,-0.00000133,-0.00001709,0.
 00008371,0.00008519,0.00008199,-0.00012157,-0.00024552,-0.00182959,-0.
 00334832,-0.00355945,-0.01105750,0.00569002,0.00137466,-0.09845209,0.0
 6552778,-0.00000131,0.00000059,-0.00000021,0.00000076,-0.00000164,0.00
 000069,-0.00000053,0.00000136,-0.00000065,0.00000053,-0.00000193,0.000
 00080,-0.00000056,0.00000126,-0.00000062,0.00000166,0.00000099,-0.0000
 0106,-0.00000145,-0.00000043,0.00000051,0.00000048,-0.00000178,0.00000
 091,-0.00000045,0.00000136,-0.00000067,0.00000045,-0.00000246,0.000001
 29,-0.00000053,0.00000183,-0.00000096,0.00000217,0.00000141,-0.0000013
 9,-0.00000196,-0.00000076,0.00000090,0.00000058,-0.00000227,0.00000123
 ,-0.00000058,0.00000187,-0.00000098,0.00000041,-0.00000262,0.00000146,
 -0.00000041,0.00000209,-0.00000114,0.00000024,-0.00000299,0.00000174,-
 0.00000024,0.00000232,-0.00000134,0.,-0.00000337,0.00000198,0.00000003
 ,0.00000260,-0.00000155,-0.00000020,-0.00000364,0.00000244,0.00000042,
 0.00000262,-0.00000179,-0.00000091,-0.00000606,0.00000343,0.00000022,0
 .00000336,-0.00000197,0.00000396,0.00000515,-0.00000405,-0.00000291,-0
 .00000266,0.00000206,-0.00000055,-0.00000694,0.00000509,-0.00000045,0.
 00000431,-0.00000307,0.00000514,0.00000518,-0.00000688,-0.00000406,-0.
 00000273,0.00000361,-0.00000022,-0.00000754,0.00000888,-0.00000145,0.0
 0000411,-0.00000454,0.00000347,0.00000342,-0.00000924,-0.00000347,-0.0
 0000463,0.00000794,0.00000503,0.00001425,-0.00000746,-0.00000361,-0.00
 001108,0.00001123,-0.00001219,-0.00001331,-0.00004376,-0.00000392,-0.0
 0001338,0.00002757,0.00004712,0.00017927,0.00005783,-0.00007466,-0.000
 06499,0.00004641,-0.00031390,-0.00039403,-0.00079191,-0.00093968,0.000
 01082,0.00069003,0.00189477,0.00734972,0.00141985,-0.02083081,0.007159
 83,0.00577876,0.03470585,0.00220563,-0.05154486,0.00000006,0.00000001,
 0.00000006,0.,0.00000029,-0.00000009,0.00000003,0.00000007,0.00000001,
 -0.00000017,0.00000039,-0.00000009,0.00000012,-0.00000010,0.00000012,-
 0.00000044,-0.00000006,0.00000023,0.00000019,-0.00000003,0.00000005,-0
 .00000011,0.00000032,-0.00000013,0.00000005,0.00000009,-0.00000006,-0.
 00000024,0.00000046,-0.00000019,0.00000015,-0.00000015,0.00000008,-0.0
 0000055,-0.00000009,0.00000021,0.00000021,-0.00000002,-0.00000003,-0.0
 0000016,0.00000041,-0.00000022,0.00000002,0.00000015,-0.00000010,-0.00
 000014,0.00000054,-0.00000030,0.,0.00000021,-0.00000012,-0.00000014,0.
 00000064,-0.00000036,-0.00000001,0.00000023,-0.00000014,-0.00000016,0.
 00000075,-0.00000042,0.,0.00000028,-0.00000014,-0.00000018,0.00000087,
 -0.00000048,0.,0.00000029,-0.00000025,-0.00000051,0.00000104,-0.000000
 46,0.00000028,-0.00000028,0.00000039,-0.00000121,-0.00000014,0.0000005
 3,0.00000045,-0.00000002,-0.00000022,-0.00000081,0.00000107,-0.0000004
 9,0.00000036,-0.00000027,0.00000046,-0.00000160,-0.00000003,0.00000078
 ,0.00000073,0.00000014,-0.00000014,-0.00000121,0.00000148,-0.00000075,
 0.00000046,-0.00000050,0.00000050,-0.00000166,-0.00000015,0.00000133,-
 0.00000015,0.00000009,0.00000115,-0.00000231,-0.00000031,0.00000216,-0
 .00000095,-0.00000157,0.00000022,-0.00000324,0.00000004,0.00000333,0.0
 0000366,0.00000906,0.00000931,-0.00000512,-0.00000118,0.00000473,-0.00
 001199,-0.00003279,-0.00002665,-0.00000362,0.00000580,0.00001943,0.000
 09181,0.00003743,0.00005106,-0.00041117,-0.00009412,0.00004285,-0.0013
 9275,-0.00365833,-0.00162751,0.02008982,-0.00704490,0.00094558,-0.0328
 1982,-0.00564131,0.04492810,-0.27038638,0.12522830,-0.01266140,-0.0182
 5129,0.01558261,-0.00333524,-0.00105741,-0.00238511,0.00432255,-0.0007
 9688,0.00094374,-0.00034331,-0.00015732,-0.00035629,-0.00002802,0.0000
 0870,0.00007861,-0.00002177,0.00002072,-0.00005872,0.00003643,-0.00002
 933,0.00001341,-0.00000326,0.00001870,-0.00002170,0.00001522,-0.000030
 04,-0.00001506,0.00001564,0.00002829,0.00002080,-0.00001996,-0.0000034
 9,0.00002448,-0.00001355,0.00000071,-0.00003093,0.00001764,-0.00000298
 ,0.00001139,-0.00000600,0.00000241,-0.00001711,0.00000951,-0.00000290,
 0.00001086,-0.00000568,0.00000232,-0.00001479,0.00000813,-0.00000315,0
 .00000931,-0.00000467,0.00000262,-0.00001265,0.00000684,-0.00000341,0.
 00000798,-0.00000386,0.00000308,-0.00001064,0.00000564,-0.00000384,0.0
 0000706,-0.00000303,0.00000380,-0.00000900,0.00000443,-0.00000939,-0.0
 0000456,0.00000543,0.00001001,0.00000624,-0.00000683,-0.00000221,0.000
 00867,-0.00000587,0.00000170,-0.00000978,0.00000716,-0.00000565,-0.000
 00298,0.00000535,0.00000667,0.00000480,-0.00000765,-0.00000116,0.00000
 469,-0.00000512,0.00000044,-0.00000648,0.00000780,-0.00000282,-0.00000
 196,0.00000433,0.00000454,0.00000396,-0.00000804,-0.00000203,-0.000002
 26,0.00000377,0.00000334,0.00000321,-0.00000526,-0.00000243,-0.0000020
 1,0.00000389,0.00000346,0.00000242,-0.00000488,-0.00000288,-0.00000152
 ,0.00000346,0.00000363,0.00000202,-0.00000429,-0.00000301,-0.00000119,
 0.00000309,0.00000360,0.00000166,-0.00000395,-0.00000304,-0.00000108,0
 .00000289,0.00000366,0.00000141,-0.00000364,-0.00000349,-0.00000075,0.
 00000272,0.00000401,0.00000088,-0.00000316,-0.00000374,0.00000101,0.00
 000040,0.00327403,-0.00236812,0.00109044,0.00067446,-0.00088184,-0.001
 30473,0.00017682,0.00001379,-0.00012026,0.00002021,-0.00004538,0.00006
 561,-0.00012791,0.00004251,0.00001454,0.00000846,-0.00002725,-0.000003
 50,-0.00001062,0.00001439,-0.00000497,0.00000469,0.00000227,-0.0000115
 1,-0.00000356,0.00000705,-0.00000303,0.00000270,0.00000162,-0.00000068
 ,-0.00000663,-0.00000117,0.00000249,0.00000104,-0.00000221,0.00000156,
 -0.00000259,0.00000532,-0.00000239,0.00000012,0.00000194,-0.00000114,-
 0.00000094,0.00000427,-0.00000225,-0.00000002,0.00000165,-0.00000095,-
 0.00000079,0.00000361,-0.00000193,0.,0.00000140,-0.00000085,-0.0000006
 5,0.00000303,-0.00000166,0.,0.00000119,-0.00000074,-0.00000063,0.00000
 253,-0.00000135,0.00000009,0.00000087,-0.00000068,-0.00000073,0.000001
 82,-0.00000101,0.00000082,0.00000003,-0.00000027,-0.00000237,-0.000000
 48,0.00000103,0.00000039,-0.00000073,0.00000035,-0.00000109,0.00000147
 ,-0.00000081,0.00000075,0.,-0.00000008,-0.00000188,-0.00000028,0.00000
 092,0.00000030,-0.00000065,0.00000019,-0.00000093,0.00000116,-0.000000
 80,0.00000075,0.,0.,-0.00000166,-0.00000030,0.00000119,-0.00000029,-0.
 00000038,0.00000037,-0.00000104,-0.00000047,0.00000104,-0.00000025,-0.
 00000021,0.00000039,-0.00000091,-0.00000041,0.00000093,-0.00000020,-0.
 00000020,0.00000027,-0.00000077,-0.00000040,0.00000081,-0.00000013,-0.
 00000015,0.00000021,-0.00000069,-0.00000032,0.00000076,-0.00000010,-0.
 00000007,0.00000016,-0.00000064,-0.00000031,0.00000073,-0.00000006,-0.
 00000004,0.00000010,-0.00000042,-0.00000027,0.00000059,0.00000011,-0.0
 0000006,0.00000011,-0.00000018,0.00000035,-0.00000024,0.28663677,0.129
 08057,-0.12440678,0.02125499,-0.01259940,0.00943226,0.00007147,-0.0006
 3897,0.00165719,0.00562872,-0.00029805,0.00063022,-0.00029157,-0.00028
 726,-0.00024459,-0.00041834,0.00001664,-0.00007671,0.00009993,-0.00003
 927,0.00001059,0.00002164,0.00002918,0.00000882,-0.00001909,-0.0000193
 5,0.00000302,0.00001997,0.00001499,0.00000216,-0.00000688,-0.00000743,
 0.00001082,-0.00000588,0.00000416,-0.00000819,0.00000381,-0.00000819,-
 0.00000204,0.00000217,0.00000583,0.00000225,-0.00000304,-0.00000514,-0
 .00000132,0.00000212,0.00000377,0.00000143,-0.00000192,-0.00000332,-0.
 00000098,0.00000127,0.00000254,0.00000098,-0.00000130,-0.00000217,-0.0
 0000063,0.00000088,0.00000166,0.00000068,-0.00000085,-0.00000141,-0.00
 000042,0.00000058,0.00000095,0.00000049,-0.00000056,-0.00000089,-0.000
 00032,0.00000042,0.00000050,0.00000010,-0.00000022,-0.00000024,0.00000
 049,-0.00000032,0.00000024,-0.00000047,0.00000018,-0.00000041,-0.00000
 016,0.00000025,0.00000024,0.,-0.00000008,-0.00000009,0.00000018,-0.000
 00016,0.00000010,-0.00000020,0.00000010,-0.00000024,-0.00000012,0.0000
 0023,0.00000009,-0.00000005,0.00000001,-0.00000005,0.00000011,-0.00000
 014,0.00000006,-0.00000018,0.00000023,-0.00000002,0.00000003,0.,-0.000
 00017,0.00000008,0.00000004,0.00000014,-0.00000008,0.00000007,-0.00000
 018,0.00000014,0.,0.00000017,-0.00000007,0.00000006,0.00000006,0.00000
 002,-0.00000001,-0.00000012,-0.00000002,0.00000002,0.00000009,-0.00000
 003,-0.00000003,-0.00000015,-0.00000002,0.00000004,0.00000016,-0.00000
 006,-0.00000002,-0.00000009,-0.00000009,0.00000009,0.00000003,-0.00000
 005,-0.00000020,0.02148536,-0.00821428,0.00073511,-0.00059392,-0.00058
 939,-0.00334996,-0.00039590,0.00023984,-0.00020316,0.00009649,0.000036
 37,0.00006124,-0.00003981,0.00002187,0.00001578,0.00000136,-0.00000555
 ,-0.00003813,-0.00000639,0.00000517,-0.00000004,-0.00000209,-0.0000074
 2,-0.00001583,-0.00000166,0.00000158,-0.00000010,0.00000102,0.00000075
 ,0.00000161,-0.00000066,0.00000044,0.00000022,0.00000092,0.00000073,0.
 00000057,-0.00000060,0.00000073,-0.00000002,0.00000009,0.00000004,0.00
 000011,-0.00000014,0.00000031,0.00000001,0.00000005,0.00000003,0.00000
 012,-0.00000009,0.00000016,0.00000002,0.00000001,-0.00000002,0.0000000
 8,-0.00000007,0.00000010,0.,0.,-0.00000004,0.00000006,-0.00000005,0.00
 000007,-0.00000002,0.00000001,-0.00000004,0.00000005,-0.00000003,0.000
 00003,0.,0.00000005,0.00000005,0.,-0.00000004,0.00000009,0.,0.00000006
 ,0.,0.00000003,-0.00000006,0.00000010,-0.00000003,0.00000002,0.0000000
 7,-0.00000004,-0.00000002,0.00000005,-0.00000003,0.00000004,0.00000001
 ,0.,-0.00000003,0.00000009,-0.00000005,0.,0.00000012,-0.00000010,0.000
 00003,0.00000005,-0.00000006,0.00000002,0.,-0.00000004,0.,0.,-0.000000
 01,0.,-0.00000001,-0.00000004,0.00000002,0.,-0.00000005,-0.00000002,-0
 .00000003,-0.00000003,0.,-0.00000002,-0.00000005,0.,0.,-0.00000002,0.0
 0000001,0.00000002,0.,0.00000002,0.00000003,0.,0.00000003,0.00000004,-
 0.00000002,0.00000001,0.00000003,0.,-0.00000001,0.00000004,0.00000002,
 0.,0.00000006,0.00000004,-0.00000006,0.00000007,0.00000006,-0.13579354
 ,0.12148918,-0.01480388,0.02218106,-0.03985039,0.01237109,-0.00667391,
 0.00492719,0.00335311,0.00604496,0.00730194,0.00035311,-0.00059369,0.0
 0022826,-0.00006638,-0.00038948,-0.00088127,0.00001178,0.00008285,0.00
 005713,0.00002135,0.00002466,0.00001075,-0.00001152,-0.00001263,-0.000
 00197,0.00001387,0.00001979,0.00001545,-0.00000257,0.00000026,-0.00000
 285,-0.00000266,-0.00001194,0.00000518,-0.00000160,-0.00000091,0.00000
 095,0.00000392,0.00000677,-0.00000701,-0.00000273,-0.00000402,0.000002
 55,0.00000237,0.00000450,-0.00000319,-0.00000157,-0.00000336,0.0000020
 9,0.00000129,0.00000363,-0.00000277,-0.00000075,-0.00000274,0.00000159
 ,0.00000055,0.00000307,-0.00000207,-0.00000014,-0.00000221,0.00000123,
 0.00000004,0.00000252,-0.00000161,0.00000035,-0.00000190,0.00000090,-0
 .00000037,0.00000216,-0.00000125,0.00000180,0.00000082,-0.00000114,-0.
 00000208,-0.00000167,0.00000160,0.00000031,-0.00000166,0.00000111,-0.0
 0000015,0.00000218,-0.00000178,0.00000110,0.00000058,-0.00000116,-0.00
 000141,-0.00000120,0.00000175,0.00000015,-0.00000093,0.00000101,0.0000
 0002,0.00000141,-0.00000184,0.00000048,0.00000043,-0.00000096,-0.00000
 088,-0.00000102,0.00000182,0.00000035,0.00000064,-0.00000094,-0.000000
 64,-0.00000078,0.00000118,0.00000056,0.00000049,-0.00000090,-0.0000007
 7,-0.00000051,0.00000106,0.00000070,0.00000032,-0.00000073,-0.00000085
 ,-0.00000036,0.00000090,0.00000067,0.00000023,-0.00000062,-0.00000078,
 -0.00000035,0.00000078,0.00000065,0.00000018,-0.00000061,-0.00000076,-
 0.00000032,0.00000073,0.00000064,0.00000018,-0.00000057,-0.00000086,-0
 .00000017,0.00000060,0.00000072,-0.00000034,-0.00000018,-0.01221703,0.
 00643571,0.00163513,-0.00146414,-0.00328000,-0.00467027,0.00010738,-0.
 00030042,-0.00015308,-0.00001332,0.00009649,0.00013769,0.00006774,-0.0
 0000649,0.00001967,-0.00002104,-0.00003113,-0.00004909,0.00000675,-0.0
 0000474,0.00000387,-0.00000963,-0.00001785,-0.00002421,0.00000202,-0.0
 0000199,0.00000151,-0.00000018,0.00000163,0.00000332,0.00000199,0.0000
 0035,-0.00000014,-0.00000017,0.00000140,0.00000146,0.00000101,-0.00000
 126,0.00000100,-0.00000001,-0.00000025,0.00000049,0.00000035,-0.000000
 91,0.00000077,0.00000005,-0.00000018,0.00000043,0.00000026,-0.00000076
 ,0.00000060,0.00000003,-0.00000018,0.00000029,0.00000020,-0.00000065,0
 .00000047,0.00000002,-0.00000015,0.00000021,0.00000017,-0.00000055,0.0
 0000037,0.,-0.00000009,0.00000018,0.00000018,-0.00000038,0.00000027,-0
 .00000019,0.00000003,0.00000013,0.00000055,0.00000011,-0.00000015,-0.0
 0000010,0.00000021,-0.00000001,0.00000029,-0.00000033,0.00000025,-0.00
 000017,0.,0.00000008,0.00000045,0.00000008,-0.00000017,-0.00000006,0.0
 0000018,0.,0.00000024,-0.00000026,0.00000024,-0.00000018,0.00000002,0.
 00000006,0.00000039,0.00000006,-0.00000022,0.00000005,0.00000008,-0.00
 000006,0.00000023,0.00000009,-0.00000022,0.00000004,0.00000004,-0.0000
 0009,0.00000018,0.00000007,-0.00000019,0.00000004,0.00000003,-0.000000
 08,0.00000015,0.00000006,-0.00000019,0.00000003,0.00000003,-0.00000004
 ,0.00000016,0.00000009,-0.00000015,0.00000003,0.00000003,0.,0.00000013
 ,0.00000007,-0.00000012,0.00000004,0.00000003,0.,0.00000013,0.00000007
 ,-0.00000008,0.,0.00000005,0.00000004,0.00000013,-0.00000005,0.0000000
 9,0.01229716,-0.02356599,0.03128801\\-0.00000098,-0.00000128,0.0000010
 2,0.00000027,0.00000145,-0.00000024,0.00000217,-0.00000183,-0.00000037
 ,-0.00000211,0.00000074,0.00000048,0.00000301,-0.00000127,-0.00000025,
 -0.00000177,0.00000149,0.00000041,-0.00000025,-0.00000094,0.00000055,0
 .00000008,0.00000163,-0.00000188,-0.00000077,-0.00000178,0.00000191,0.
 00000233,0.00000061,-0.00000033,-0.00000033,0.00000120,-0.00000104,0.0
 0000038,-0.00000140,0.00000122,-0.00000263,-0.00000009,0.00000079,0.00
 000266,0.00000181,-0.00000138,-0.00000309,-0.00000231,0.00000134,0.000
 00323,0.00000158,-0.00000165,-0.00000281,-0.00000144,0.00000142,0.0000
 0229,0.00000132,-0.00000151,-0.00000232,-0.00000147,0.00000142,0.00000
 183,0.00000144,-0.00000136,-0.00000201,-0.00000165,0.00000131,0.000001
 59,0.00000180,-0.00000115,-0.00000161,-0.00000191,0.00000108,0.0000014
 9,0.00000094,0.00000013,-0.00000033,0.00000081,-0.00000075,0.00000115,
 -0.00000066,0.00000076,-0.00000060,0.00000127,0.00000043,0.00000069,-0
 .00000105,0.00000032,-0.00000050,0.00000105,0.00000100,0.00000200,-0.0
 0000012,-0.00000012,-0.00000075,0.00000091,0.00000115,0.00000160,0.000
 00084,0.00000035,-0.00000071,0.00000060,-0.00000096,0.00000018,-0.0000
 0056,0.00000228,0.00000029,0.00000113,-0.00000155,-0.00000061,-0.00000
 015,0.00000150,0.00000109,0.00000079,-0.00000076,-0.00000179,0.0000005
 8,0.00000089,0.00000235,-0.00000024,-0.00000017,-0.00000272,0.00000132
 ,0.00000041,0.00000325,-0.00000099,0.00000021,-0.00000312,0.00000154,0
 .00000025,0.00000323,-0.00000076,-0.00000014,-0.00000261,0.00000107,0.
 00000050,0.00000098,0.00000041,-0.00000054,-0.00000014,-0.00000073,0.0
 0000154,0.00000071,0.00000040,-0.00000013,0.00000028,-0.00000056,0.000
 00021,-0.00000133,0.00000027,-0.00000095,0.00000021,-0.00000003,0.0000
 0049,-0.00000077,0.00000043,0.00000007,0.00000059,0.00000039,0.0000008
 0,0.00000021,0.00000046,0.00000017,0.00000048,-0.00000130,-0.00000026,
 -0.00000050,0.00000136,0.00000029,-0.00000053,-0.00000040,0.00000021,-
 0.00000066,-0.00000089,-0.00000095,0.00000038,-0.00000003,-0.00000070,
 0.00000065,0.00000036,-0.00000026,0.00000106,-0.00000050,0.00000161,0.
 00000007,0.00000113,-0.00000050,0.00000018,-0.00000105,0.00000051,-0.0
 0000021,0.00000098,-0.00000040,0.00000025,-0.00000088,0.00000034,-0.00
 000031,0.00000086,-0.00000039,0.00000027,-0.00000079,0.00000020,-0.000
 00038,0.00000078,-0.00000043,0.00000015,-0.00000084,0.00000012,-0.0000
 0072,0.00000020,-0.00000137,-0.00000034,-0.00000035,-0.00000015,-0.000
 00075,-0.00000070,-0.00000101,0.00000007,0.00000020,-0.00000008,-0.000
 00022,0.00000069,0.00000058,0.00000016,-0.00000072,-0.00000034,-0.0000
 0074,-0.00000068,-0.00000056,-0.00000041,-0.00000163,-0.00000186,-0.00
 000057,-0.00000092,-0.00000135,-0.00000008,-0.00000079,-0.00000015,-0.
 00000035,-0.00000100,-0.00000010,0.00000087,0.00000024,-0.00000051,-0.
 00000100,-0.00000081,0.00000030,0.00000073,-0.00000035,-0.00000084,-0.
 00000102,-0.00000051,0.00000024,0.00000079,-0.00000035,-0.00000057,-0.
 00000107,-0.00000022,0.00000020,0.00000093,-0.00000033,-0.00000038,-0.
 00000114,0.00000006,0.00000020,0.00000103,-0.00000023,-0.00000026,-0.0
 0000116,0.00000019,0.00000033,0.00000111,-0.00000013,-0.00000015,-0.00
 000073,0.00000022,0.00000031,-0.00000026,0.00000070,-0.00000024,0.0000
 0006,0.00000069,-0.00000041,0.00000047,0.00000067,-0.00000037\\\@


 THEREFORE SHALL EVIL COME UPON THEE...
 THOU SHALT NOT KNOW FROM WHENCE IT RISETH...
 AND MISCHIEF SHALL FALL UPON THEE...
 THOU SHALT NOT BE ABLE TO PUT IT OFF...
 AND DESOLATION SHALL COME UPON THEE SUDDENLY...
 WHICH THOU SHALT NOT KNOW...

                                         ISAIAH 47.11
 Job cpu time:       0 days  4 hours 45 minutes 19.2 seconds.
 Elapsed time:       0 days  4 hours 45 minutes 19.1 seconds.
 File lengths (MBytes):  RWF=   7357 Int=      0 D2E=      0 Chk=     73 Scr=      1
 Normal termination of Gaussian 16 at Sat Oct 28 13:48:19 2023.
