 Entering Gaussian System, Link 0=g16
 Input=./com/24.com
 Output=./log/24.log
 Initial command:
 /home/shohei/gaussian/g16/l1.exe "/home/shohei/gaussian/scratch/Gau-26426.inp" -scrdir="/home/shohei/gaussian/scratch/"
 Entering Link 1 = /home/shohei/gaussian/g16/l1.exe PID=     26428.
  
 Copyright (c) 1988-2017, Gaussian, Inc.  All Rights Reserved.
  
 This is part of the Gaussian(R) 16 program.  It is based on
 the Gaussian(R) 09 system (copyright 2009, Gaussian, Inc.),
 the Gaussian(R) 03 system (copyright 2003, Gaussian, Inc.),
 the Gaussian(R) 98 system (copyright 1998, Gaussian, Inc.),
 the Gaussian(R) 94 system (copyright 1995, Gaussian, Inc.),
 the Gaussian 92(TM) system (copyright 1992, Gaussian, Inc.),
 the Gaussian 90(TM) system (copyright 1990, Gaussian, Inc.),
 the Gaussian 88(TM) system (copyright 1988, Gaussian, Inc.),
 the Gaussian 86(TM) system (copyright 1986, Carnegie Mellon
 University), and the Gaussian 82(TM) system (copyright 1983,
 Carnegie Mellon University). Gaussian is a federally registered
 trademark of Gaussian, Inc.
  
 This software contains proprietary and confidential information,
 including trade secrets, belonging to Gaussian, Inc.
  
 This software is provided under written license and may be
 used, copied, transmitted, or stored only in accord with that
 written license.
  
 The following legend is applicable only to US Government
 contracts under FAR:
  
                    RESTRICTED RIGHTS LEGEND
  
 Use, reproduction and disclosure by the US Government is
 subject to restrictions as set forth in subparagraphs (a)
 and (c) of the Commercial Computer Software - Restricted
 Rights clause in FAR 52.227-19.
  
 Gaussian, Inc.
 340 Quinnipiac St., Bldg. 40, Wallingford CT 06492
  
  
 ---------------------------------------------------------------
 Warning -- This program may not be used in any manner that
 competes with the business of Gaussian, Inc. or will provide
 assistance to any competitor of Gaussian, Inc.  The licensee
 of this program is prohibited from giving any competitor of
 Gaussian, Inc. access to this program.  By using this program,
 the user acknowledges that Gaussian, Inc. is engaged in the
 business of creating and licensing software in the field of
 computational chemistry and represents and warrants to the
 licensee that it is not a competitor of Gaussian, Inc. and that
 it will not use this program in any manner prohibited above.
 ---------------------------------------------------------------
  

 Cite this work as:
 Gaussian 16, Revision B.01,
 M. J. Frisch, G. W. Trucks, H. B. Schlegel, G. E. Scuseria, 
 M. A. Robb, J. R. Cheeseman, G. Scalmani, V. Barone, 
 G. A. Petersson, H. Nakatsuji, X. Li, M. Caricato, A. V. Marenich, 
 J. Bloino, B. G. Janesko, R. Gomperts, B. Mennucci, H. P. Hratchian, 
 J. V. Ortiz, A. F. Izmaylov, J. L. Sonnenberg, D. Williams-Young, 
 F. Ding, F. Lipparini, F. Egidi, J. Goings, B. Peng, A. Petrone, 
 T. Henderson, D. Ranasinghe, V. G. Zakrzewski, J. Gao, N. Rega, 
 G. Zheng, W. Liang, M. Hada, M. Ehara, K. Toyota, R. Fukuda, 
 J. Hasegawa, M. Ishida, T. Nakajima, Y. Honda, O. Kitao, H. Nakai, 
 T. Vreven, K. Throssell, J. A. Montgomery, Jr., J. E. Peralta, 
 F. Ogliaro, M. J. Bearpark, J. J. Heyd, E. N. Brothers, K. N. Kudin, 
 V. N. Staroverov, T. A. Keith, R. Kobayashi, J. Normand, 
 K. Raghavachari, A. P. Rendell, J. C. Burant, S. S. Iyengar, 
 J. Tomasi, M. Cossi, J. M. Millam, M. Klene, C. Adamo, R. Cammi, 
 J. W. Ochterski, R. L. Martin, K. Morokuma, O. Farkas, 
 J. B. Foresman, and D. J. Fox, Gaussian, Inc., Wallingford CT, 2016.
 
 ******************************************
 Gaussian 16:  EM64L-G16RevB.01 20-Dec-2017
                28-Oct-2023 
 ******************************************
 %chk=./chk/24.chk
 ---------------------------
 # B3LYP/6-31G(d,p) OPT FREQ
 ---------------------------
 1/18=20,19=15,26=3,38=1/1,3;
 2/9=110,12=2,17=6,18=5,40=1/2;
 3/5=1,6=6,7=101,11=2,25=1,30=1,71=1,74=-5/1,2,3;
 4//1;
 5/5=2,38=5/2;
 6/7=2,8=2,9=2,10=2,28=1/1;
 7//1,2,3,16;
 1/18=20,19=15,26=3/3(2);
 2/9=110/2;
 99//99;
 2/9=110/2;
 3/5=1,6=6,7=101,11=2,25=1,30=1,71=1,74=-5/1,2,3;
 4/5=5,16=3,69=1/1;
 5/5=2,38=5/2;
 7//1,2,3,16;
 1/18=20,19=15,26=3/3(-5);
 2/9=110/2;
 6/7=2,8=2,9=2,10=2,19=2,28=1/1;
 99/9=1/99;
 ------
 24poly
 ------
 Symbolic Z-matrix:
 Charge =  0 Multiplicity = 1
 C                    -25.14904   4.14864  -0.20324 
 C                    -24.02994   4.67843  -0.70253 
 C                    -22.70111   4.24562  -0.22385 
 C                    -21.57973   4.77686  -0.72939 
 C                    -20.24962   4.34127  -0.25217 
 C                    -19.12794   4.87189  -0.77127 
 C                    -17.74147   4.50512  -0.37384 
 C                    -17.4274   3.5984    0.57509 
 C                    -16.04261   3.22104   0.96617 
 C                    -14.91774   3.7205    0.42344 
 C                    -13.5907   3.25196   0.88103 
 C                    -12.46432   3.72367   0.31711 
 C                    -11.08335   3.30172   0.6767 
 C                    -10.7762   2.41183   1.64415 
 C                    -9.39775   1.96198   1.979 
 C                    -8.27888   2.35814   1.34701 
 C                    -6.96099   1.8074    1.73071 
 C                    -5.85412   2.15033   1.05861 
 C                    -4.54094   1.56108   1.39457 
 C                    -3.4584    1.85289   0.66192 
 C                    -2.14932   1.22519   0.93917 
 C                    -1.10292   1.4646    0.13818 
 C                     0.20096   0.80104   0.34872 
 C                     1.19982   0.99207  -0.52322 
 C                     2.49873   0.29862  -0.38529 
 C                     3.43925   0.45627  -1.33273 
 C                     4.76457  -0.21282  -1.36015 
 C                     5.24256  -1.04017  -0.40631 
 C                     6.56349  -1.73139  -0.47198 
 C                     7.40133  -1.67414  -1.52906 
 C                     8.70983  -2.36986  -1.63567 
 C                     9.28547  -3.11689  -0.66971 
 C                     10.60105  -3.8074   -0.81033 
 C                     11.33246  -3.83321  -1.94497 
 C                     12.64538  -4.50754  -2.10684 
 C                     13.32705  -5.14585  -1.14011 
 C                     14.63932  -5.75298  -1.45132 
 C                     15.38534  -6.34859  -0.51174 
 C                     16.70305  -6.91882  -0.86371 
 C                     17.50092  -7.46983   0.06001 
 C                     18.82381  -8.0071   -0.32286 
 C                     19.66192  -8.51753   0.58843 
 C                     20.98858  -9.02891   0.18391 
 C                     21.85405  -9.50801   1.08666 
 C                     23.183   -10.00251   0.66917 
 C                     24.06374  -10.46226   1.56727 
 C                     25.3931  -10.94846   1.14357 
 C                     26.2796  -11.39967   2.03372 
 H                    -25.11382   3.38515   0.56842 
 H                    -24.10673   5.43979  -1.47413 
 H                    -22.63781   3.48323   0.54936 
 H                    -21.64518   5.53799  -1.50363 
 H                    -20.20927   3.58364   0.52049 
 H                    -19.21994   5.62673  -1.54782 
 H                    -16.95931   5.02466  -0.91119 
 H                    -18.20916   3.08007   1.11377 
 H                    -15.95516   2.47288   1.74964 
 H                    -14.9549   4.46312  -0.36405 
 H                    -13.55593   2.51002   1.669 
 H                    -12.54837   4.45975  -0.4781 
 H                    -10.29973   3.75891   0.08753 
 H                    -11.55971   1.95759   2.23568 
 H                    -9.31181   1.23936   2.78618 
 H                    -8.31604   3.06577   0.52811 
 H                    -6.89685   1.09388   2.54894 
 H                    -5.92338   2.85129   0.2297 
 H                    -4.46331   0.86024   2.22242 
 H                    -3.54755   2.53998  -0.17675 
 H                    -2.0477    0.53933   1.77683 
 H                    -1.2206    2.13663  -0.70923 
 H                     0.33535   0.1307    1.19419 
 H                     1.04417   1.65019  -1.3755 
 H                     2.65673  -0.35197   0.46686 
 H                     3.22236   1.10597  -2.17692 
 H                     5.35112   0.00713  -2.24059 
 H                     4.65264  -1.24346   0.47858 
 H                     6.82351  -2.32523   0.39489 
 H                     7.13659  -1.09994  -2.40531 
 H                     9.20467  -2.23051  -2.58615 
 H                     8.79402  -3.23889   0.28709 
 H                     10.95849  -4.31795   0.07505 
 H                     10.97661  -3.34163  -2.83888 
 H                     13.0807  -4.45605  -3.10173 
 H                     12.94481  -5.21444  -0.12823 
 H                     15.01292  -5.69852  -2.47181 
 H                     15.03149  -6.39978   0.51518 
 H                     17.0356  -6.87338  -1.89866 
 H                     17.18373  -7.50981   1.09941 
 H                     19.12455  -7.97276  -1.36785 
 H                     19.37248  -8.54641   1.63632 
 H                     21.26688  -9.00486  -0.86749 
 H                     21.58285  -9.52779   2.13968 
 H                     23.44812  -9.98614  -0.38574 
 H                     23.80289  -10.47643   2.62304 
 H                     25.66267  -10.94056   0.09071 
 H                     26.04893  -11.42245   3.09467 
 H                     27.2509  -11.7511   1.70077 
 H                    -26.1157   4.47987  -0.56861 
 

 GradGradGradGradGradGradGradGradGradGradGradGradGradGradGradGradGradGrad
 Berny optimization.
 Initialization pass.
                           ----------------------------
                           !    Initial Parameters    !
                           ! (Angstroms and Degrees)  !
 --------------------------                            --------------------------
 ! Name  Definition              Value          Derivative Info.                !
 --------------------------------------------------------------------------------
 ! R1    R(1,2)                  1.335          estimate D2E/DX2                !
 ! R2    R(1,49)                 1.0861         estimate D2E/DX2                !
 ! R3    R(1,98)                 1.0852         estimate D2E/DX2                !
 ! R4    R(2,3)                  1.4772         estimate D2E/DX2                !
 ! R5    R(2,50)                 1.0867         estimate D2E/DX2                !
 ! R6    R(3,4)                  1.3399         estimate D2E/DX2                !
 ! R7    R(3,51)                 1.0877         estimate D2E/DX2                !
 ! R8    R(4,5)                  1.4787         estimate D2E/DX2                !
 ! R9    R(4,52)                 1.0877         estimate D2E/DX2                !
 ! R10   R(5,6)                  1.3451         estimate D2E/DX2                !
 ! R11   R(5,53)                 1.0829         estimate D2E/DX2                !
 ! R12   R(6,7)                  1.4882         estimate D2E/DX2                !
 ! R13   R(6,54)                 1.0869         estimate D2E/DX2                !
 ! R14   R(7,8)                  1.3495         estimate D2E/DX2                !
 ! R15   R(7,55)                 1.0819         estimate D2E/DX2                !
 ! R16   R(8,9)                  1.4876         estimate D2E/DX2                !
 ! R17   R(8,56)                 1.0817         estimate D2E/DX2                !
 ! R18   R(9,10)                 1.3451         estimate D2E/DX2                !
 ! R19   R(9,57)                 1.0868         estimate D2E/DX2                !
 ! R20   R(10,11)                1.4798         estimate D2E/DX2                !
 ! R21   R(10,58)                1.083          estimate D2E/DX2                !
 ! R22   R(11,12)                1.3451         estimate D2E/DX2                !
 ! R23   R(11,59)                1.0829         estimate D2E/DX2                !
 ! R24   R(12,13)                1.4881         estimate D2E/DX2                !
 ! R25   R(12,60)                1.0868         estimate D2E/DX2                !
 ! R26   R(13,14)                1.3499         estimate D2E/DX2                !
 ! R27   R(13,61)                1.0818         estimate D2E/DX2                !
 ! R28   R(14,15)                1.4882         estimate D2E/DX2                !
 ! R29   R(14,62)                1.0817         estimate D2E/DX2                !
 ! R30   R(15,16)                1.3447         estimate D2E/DX2                !
 ! R31   R(15,63)                1.0868         estimate D2E/DX2                !
 ! R32   R(16,17)                1.479          estimate D2E/DX2                !
 ! R33   R(16,64)                1.0829         estimate D2E/DX2                !
 ! R34   R(17,18)                1.3396         estimate D2E/DX2                !
 ! R35   R(17,65)                1.0875         estimate D2E/DX2                !
 ! R36   R(18,19)                1.478          estimate D2E/DX2                !
 ! R37   R(18,66)                1.0878         estimate D2E/DX2                !
 ! R38   R(19,20)                1.3393         estimate D2E/DX2                !
 ! R39   R(19,67)                1.0874         estimate D2E/DX2                !
 ! R40   R(20,21)                1.478          estimate D2E/DX2                !
 ! R41   R(20,68)                1.0878         estimate D2E/DX2                !
 ! R42   R(21,22)                1.3393         estimate D2E/DX2                !
 ! R43   R(21,69)                1.0874         estimate D2E/DX2                !
 ! R44   R(22,23)                1.4781         estimate D2E/DX2                !
 ! R45   R(22,70)                1.0879         estimate D2E/DX2                !
 ! R46   R(23,24)                1.3396         estimate D2E/DX2                !
 ! R47   R(23,71)                1.0873         estimate D2E/DX2                !
 ! R48   R(24,25)                1.4789         estimate D2E/DX2                !
 ! R49   R(24,72)                1.088          estimate D2E/DX2                !
 ! R50   R(25,26)                1.3443         estimate D2E/DX2                !
 ! R51   R(25,73)                1.0837         estimate D2E/DX2                !
 ! R52   R(26,27)                1.4849         estimate D2E/DX2                !
 ! R53   R(26,74)                1.0871         estimate D2E/DX2                !
 ! R54   R(27,28)                1.3501         estimate D2E/DX2                !
 ! R55   R(27,75)                1.0806         estimate D2E/DX2                !
 ! R56   R(28,29)                1.4923         estimate D2E/DX2                !
 ! R57   R(28,76)                1.0828         estimate D2E/DX2                !
 ! R58   R(29,30)                1.3501         estimate D2E/DX2                !
 ! R59   R(29,77)                1.0825         estimate D2E/DX2                !
 ! R60   R(30,31)                1.4858         estimate D2E/DX2                !
 ! R61   R(30,78)                1.0806         estimate D2E/DX2                !
 ! R62   R(31,32)                1.35           estimate D2E/DX2                !
 ! R63   R(31,79)                1.0806         estimate D2E/DX2                !
 ! R64   R(32,33)                1.4924         estimate D2E/DX2                !
 ! R65   R(32,80)                1.0825         estimate D2E/DX2                !
 ! R66   R(33,34)                1.3502         estimate D2E/DX2                !
 ! R67   R(33,81)                1.0827         estimate D2E/DX2                !
 ! R68   R(34,35)                1.4848         estimate D2E/DX2                !
 ! R69   R(34,82)                1.0804         estimate D2E/DX2                !
 ! R70   R(35,36)                1.3441         estimate D2E/DX2                !
 ! R71   R(35,83)                1.0872         estimate D2E/DX2                !
 ! R72   R(36,37)                1.479          estimate D2E/DX2                !
 ! R73   R(36,84)                1.0838         estimate D2E/DX2                !
 ! R74   R(37,38)                1.3394         estimate D2E/DX2                !
 ! R75   R(37,85)                1.0881         estimate D2E/DX2                !
 ! R76   R(38,39)                1.4783         estimate D2E/DX2                !
 ! R77   R(38,86)                1.0874         estimate D2E/DX2                !
 ! R78   R(39,40)                1.3392         estimate D2E/DX2                !
 ! R79   R(39,87)                1.088          estimate D2E/DX2                !
 ! R80   R(40,41)                1.4783         estimate D2E/DX2                !
 ! R81   R(40,88)                1.0875         estimate D2E/DX2                !
 ! R82   R(41,42)                1.3392         estimate D2E/DX2                !
 ! R83   R(41,89)                1.0879         estimate D2E/DX2                !
 ! R84   R(42,43)                1.4782         estimate D2E/DX2                !
 ! R85   R(42,90)                1.0875         estimate D2E/DX2                !
 ! R86   R(43,44)                1.3392         estimate D2E/DX2                !
 ! R87   R(43,91)                1.0879         estimate D2E/DX2                !
 ! R88   R(44,45)                1.4782         estimate D2E/DX2                !
 ! R89   R(44,92)                1.0876         estimate D2E/DX2                !
 ! R90   R(45,46)                1.3393         estimate D2E/DX2                !
 ! R91   R(45,93)                1.0878         estimate D2E/DX2                !
 ! R92   R(46,47)                1.4775         estimate D2E/DX2                !
 ! R93   R(46,94)                1.0876         estimate D2E/DX2                !
 ! R94   R(47,48)                1.3349         estimate D2E/DX2                !
 ! R95   R(47,95)                1.0868         estimate D2E/DX2                !
 ! R96   R(48,96)                1.086          estimate D2E/DX2                !
 ! R97   R(48,97)                1.0853         estimate D2E/DX2                !
 ! A1    A(2,1,49)             121.1642         estimate D2E/DX2                !
 ! A2    A(2,1,98)             119.9766         estimate D2E/DX2                !
 ! A3    A(49,1,98)            118.8592         estimate D2E/DX2                !
 ! A4    A(1,2,3)              121.1031         estimate D2E/DX2                !
 ! A5    A(1,2,50)             118.9688         estimate D2E/DX2                !
 ! A6    A(3,2,50)             119.9281         estimate D2E/DX2                !
 ! A7    A(2,3,4)              120.9592         estimate D2E/DX2                !
 ! A8    A(2,3,51)             119.2128         estimate D2E/DX2                !
 ! A9    A(4,3,51)             119.8279         estimate D2E/DX2                !
 ! A10   A(3,4,5)              120.9482         estimate D2E/DX2                !
 ! A11   A(3,4,52)             119.7127         estimate D2E/DX2                !
 ! A12   A(5,4,52)             119.3389         estimate D2E/DX2                !
 ! A13   A(4,5,6)              120.6214         estimate D2E/DX2                !
 ! A14   A(4,5,53)             118.0258         estimate D2E/DX2                !
 ! A15   A(6,5,53)             121.3523         estimate D2E/DX2                !
 ! A16   A(5,6,7)              125.2144         estimate D2E/DX2                !
 ! A17   A(5,6,54)             118.6285         estimate D2E/DX2                !
 ! A18   A(7,6,54)             116.1563         estimate D2E/DX2                !
 ! A19   A(6,7,8)              124.7619         estimate D2E/DX2                !
 ! A20   A(6,7,55)             114.9959         estimate D2E/DX2                !
 ! A21   A(8,7,55)             120.242          estimate D2E/DX2                !
 ! A22   A(7,8,9)              124.8842         estimate D2E/DX2                !
 ! A23   A(7,8,56)             120.2614         estimate D2E/DX2                !
 ! A24   A(9,8,56)             114.8539         estimate D2E/DX2                !
 ! A25   A(8,9,10)             125.3237         estimate D2E/DX2                !
 ! A26   A(8,9,57)             116.042          estimate D2E/DX2                !
 ! A27   A(10,9,57)            118.6319         estimate D2E/DX2                !
 ! A28   A(9,10,11)            120.5026         estimate D2E/DX2                !
 ! A29   A(9,10,58)            121.2839         estimate D2E/DX2                !
 ! A30   A(11,10,58)           118.2093         estimate D2E/DX2                !
 ! A31   A(10,11,12)           120.6818         estimate D2E/DX2                !
 ! A32   A(10,11,59)           118.0822         estimate D2E/DX2                !
 ! A33   A(12,11,59)           121.2292         estimate D2E/DX2                !
 ! A34   A(11,12,13)           125.1964         estimate D2E/DX2                !
 ! A35   A(11,12,60)           118.6519         estimate D2E/DX2                !
 ! A36   A(13,12,60)           116.1431         estimate D2E/DX2                !
 ! A37   A(12,13,14)           124.839          estimate D2E/DX2                !
 ! A38   A(12,13,61)           114.8848         estimate D2E/DX2                !
 ! A39   A(14,13,61)           120.2731         estimate D2E/DX2                !
 ! A40   A(13,14,15)           124.8414         estimate D2E/DX2                !
 ! A41   A(13,14,62)           120.2598         estimate D2E/DX2                !
 ! A42   A(15,14,62)           114.894          estimate D2E/DX2                !
 ! A43   A(14,15,16)           125.1634         estimate D2E/DX2                !
 ! A44   A(14,15,63)           116.191          estimate D2E/DX2                !
 ! A45   A(16,15,63)           118.6304         estimate D2E/DX2                !
 ! A46   A(15,16,17)           120.6501         estimate D2E/DX2                !
 ! A47   A(15,16,64)           121.2892         estimate D2E/DX2                !
 ! A48   A(17,16,64)           118.0403         estimate D2E/DX2                !
 ! A49   A(16,17,18)           120.7163         estimate D2E/DX2                !
 ! A50   A(16,17,65)           119.4763         estimate D2E/DX2                !
 ! A51   A(18,17,65)           119.7825         estimate D2E/DX2                !
 ! A52   A(17,18,19)           121.1997         estimate D2E/DX2                !
 ! A53   A(17,18,66)           119.6488         estimate D2E/DX2                !
 ! A54   A(19,18,66)           119.1237         estimate D2E/DX2                !
 ! A55   A(18,19,20)           120.4587         estimate D2E/DX2                !
 ! A56   A(18,19,67)           119.5651         estimate D2E/DX2                !
 ! A57   A(20,19,67)           119.9443         estimate D2E/DX2                !
 ! A58   A(19,20,21)           121.3816         estimate D2E/DX2                !
 ! A59   A(19,20,68)           119.5448         estimate D2E/DX2                !
 ! A60   A(21,20,68)           119.0406         estimate D2E/DX2                !
 ! A61   A(20,21,22)           120.2567         estimate D2E/DX2                !
 ! A62   A(20,21,69)           119.6788         estimate D2E/DX2                !
 ! A63   A(22,21,69)           120.029          estimate D2E/DX2                !
 ! A64   A(21,22,23)           121.5846         estimate D2E/DX2                !
 ! A65   A(21,22,70)           119.4554         estimate D2E/DX2                !
 ! A66   A(23,22,70)           118.9262         estimate D2E/DX2                !
 ! A67   A(22,23,24)           120.0685         estimate D2E/DX2                !
 ! A68   A(22,23,71)           119.7728         estimate D2E/DX2                !
 ! A69   A(24,23,71)           120.1247         estimate D2E/DX2                !
 ! A70   A(23,24,25)           121.826          estimate D2E/DX2                !
 ! A71   A(23,24,72)           119.3055         estimate D2E/DX2                !
 ! A72   A(25,24,72)           118.8389         estimate D2E/DX2                !
 ! A73   A(24,25,26)           119.5896         estimate D2E/DX2                !
 ! A74   A(24,25,73)           118.8751         estimate D2E/DX2                !
 ! A75   A(26,25,73)           121.5071         estimate D2E/DX2                !
 ! A76   A(25,26,27)           125.7768         estimate D2E/DX2                !
 ! A77   A(25,26,74)           118.5424         estimate D2E/DX2                !
 ! A78   A(27,26,74)           115.6599         estimate D2E/DX2                !
 ! A79   A(26,27,28)           125.3857         estimate D2E/DX2                !
 ! A80   A(26,27,75)           114.0675         estimate D2E/DX2                !
 ! A81   A(28,27,75)           120.5446         estimate D2E/DX2                !
 ! A82   A(27,28,29)           124.4818         estimate D2E/DX2                !
 ! A83   A(27,28,76)           119.9699         estimate D2E/DX2                !
 ! A84   A(29,28,76)           115.5475         estimate D2E/DX2                !
 ! A85   A(28,29,30)           124.3422         estimate D2E/DX2                !
 ! A86   A(28,29,77)           115.563          estimate D2E/DX2                !
 ! A87   A(30,29,77)           120.0814         estimate D2E/DX2                !
 ! A88   A(29,30,31)           125.6522         estimate D2E/DX2                !
 ! A89   A(29,30,78)           120.3597         estimate D2E/DX2                !
 ! A90   A(31,30,78)           113.9796         estimate D2E/DX2                !
 ! A91   A(30,31,32)           125.6826         estimate D2E/DX2                !
 ! A92   A(30,31,79)           113.9552         estimate D2E/DX2                !
 ! A93   A(32,31,79)           120.3615         estimate D2E/DX2                !
 ! A94   A(31,32,33)           124.3666         estimate D2E/DX2                !
 ! A95   A(31,32,80)           120.0796         estimate D2E/DX2                !
 ! A96   A(33,32,80)           115.5516         estimate D2E/DX2                !
 ! A97   A(32,33,34)           124.4396         estimate D2E/DX2                !
 ! A98   A(32,33,81)           115.603          estimate D2E/DX2                !
 ! A99   A(34,33,81)           119.9556         estimate D2E/DX2                !
 ! A100  A(33,34,35)           125.4004         estimate D2E/DX2                !
 ! A101  A(33,34,82)           120.5414         estimate D2E/DX2                !
 ! A102  A(35,34,82)           114.0576         estimate D2E/DX2                !
 ! A103  A(34,35,36)           125.8518         estimate D2E/DX2                !
 ! A104  A(34,35,83)           115.6143         estimate D2E/DX2                !
 ! A105  A(36,35,83)           118.5287         estimate D2E/DX2                !
 ! A106  A(35,36,37)           119.5752         estimate D2E/DX2                !
 ! A107  A(35,36,84)           121.5116         estimate D2E/DX2                !
 ! A108  A(37,36,84)           118.9062         estimate D2E/DX2                !
 ! A109  A(36,37,38)           121.9451         estimate D2E/DX2                !
 ! A110  A(36,37,85)           118.7796         estimate D2E/DX2                !
 ! A111  A(38,37,85)           119.2685         estimate D2E/DX2                !
 ! A112  A(37,38,39)           120.0646         estimate D2E/DX2                !
 ! A113  A(37,38,86)           120.1426         estimate D2E/DX2                !
 ! A114  A(39,38,86)           119.7851         estimate D2E/DX2                !
 ! A115  A(38,39,40)           121.7049         estimate D2E/DX2                !
 ! A116  A(38,39,87)           118.8688         estimate D2E/DX2                !
 ! A117  A(40,39,87)           119.4193         estimate D2E/DX2                !
 ! A118  A(39,40,41)           120.2687         estimate D2E/DX2                !
 ! A119  A(39,40,88)           120.0411         estimate D2E/DX2                !
 ! A120  A(41,40,88)           119.6834         estimate D2E/DX2                !
 ! A121  A(40,41,42)           121.4894         estimate D2E/DX2                !
 ! A122  A(40,41,89)           118.9908         estimate D2E/DX2                !
 ! A123  A(42,41,89)           119.5147         estimate D2E/DX2                !
 ! A124  A(41,42,43)           120.4847         estimate D2E/DX2                !
 ! A125  A(41,42,90)           119.9502         estimate D2E/DX2                !
 ! A126  A(43,42,90)           119.5609         estimate D2E/DX2                !
 ! A127  A(42,43,44)           121.284          estimate D2E/DX2                !
 ! A128  A(42,43,91)           119.105          estimate D2E/DX2                !
 ! A129  A(44,43,91)           119.6083         estimate D2E/DX2                !
 ! A130  A(43,44,45)           120.6843         estimate D2E/DX2                !
 ! A131  A(43,44,92)           119.8698         estimate D2E/DX2                !
 ! A132  A(45,44,92)           119.4442         estimate D2E/DX2                !
 ! A133  A(44,45,46)           121.1103         estimate D2E/DX2                !
 ! A134  A(44,45,93)           119.2068         estimate D2E/DX2                !
 ! A135  A(46,45,93)           119.6821         estimate D2E/DX2                !
 ! A136  A(45,46,47)           120.8197         estimate D2E/DX2                !
 ! A137  A(45,46,94)           119.8484         estimate D2E/DX2                !
 ! A138  A(47,46,94)           119.3315         estimate D2E/DX2                !
 ! A139  A(46,47,48)           121.1657         estimate D2E/DX2                !
 ! A140  A(46,47,95)           119.9045         estimate D2E/DX2                !
 ! A141  A(48,47,95)           118.9297         estimate D2E/DX2                !
 ! A142  A(47,48,96)           121.1657         estimate D2E/DX2                !
 ! A143  A(47,48,97)           119.9501         estimate D2E/DX2                !
 ! A144  A(96,48,97)           118.8842         estimate D2E/DX2                !
 ! D1    D(49,1,2,3)             0.0053         estimate D2E/DX2                !
 ! D2    D(49,1,2,50)          179.9668         estimate D2E/DX2                !
 ! D3    D(98,1,2,3)          -179.9732         estimate D2E/DX2                !
 ! D4    D(98,1,2,50)           -0.0117         estimate D2E/DX2                !
 ! D5    D(1,2,3,4)            179.8295         estimate D2E/DX2                !
 ! D6    D(1,2,3,51)            -0.0805         estimate D2E/DX2                !
 ! D7    D(50,2,3,4)            -0.1317         estimate D2E/DX2                !
 ! D8    D(50,2,3,51)          179.9583         estimate D2E/DX2                !
 ! D9    D(2,3,4,5)           -179.8632         estimate D2E/DX2                !
 ! D10   D(2,3,4,52)            -0.0049         estimate D2E/DX2                !
 ! D11   D(51,3,4,5)             0.0463         estimate D2E/DX2                !
 ! D12   D(51,3,4,52)          179.9045         estimate D2E/DX2                !
 ! D13   D(3,4,5,6)            179.5057         estimate D2E/DX2                !
 ! D14   D(3,4,5,53)            -0.2521         estimate D2E/DX2                !
 ! D15   D(52,4,5,6)            -0.3531         estimate D2E/DX2                !
 ! D16   D(52,4,5,53)          179.8892         estimate D2E/DX2                !
 ! D17   D(4,5,6,7)           -179.6569         estimate D2E/DX2                !
 ! D18   D(4,5,6,54)             0.0088         estimate D2E/DX2                !
 ! D19   D(53,5,6,7)             0.0927         estimate D2E/DX2                !
 ! D20   D(53,5,6,54)          179.7584         estimate D2E/DX2                !
 ! D21   D(5,6,7,8)             -0.7985         estimate D2E/DX2                !
 ! D22   D(5,6,7,55)           179.0392         estimate D2E/DX2                !
 ! D23   D(54,6,7,8)           179.5285         estimate D2E/DX2                !
 ! D24   D(54,6,7,55)           -0.6339         estimate D2E/DX2                !
 ! D25   D(6,7,8,9)            179.4349         estimate D2E/DX2                !
 ! D26   D(6,7,8,56)            -0.2802         estimate D2E/DX2                !
 ! D27   D(55,7,8,9)            -0.3948         estimate D2E/DX2                !
 ! D28   D(55,7,8,56)          179.8901         estimate D2E/DX2                !
 ! D29   D(7,8,9,10)            -0.5777         estimate D2E/DX2                !
 ! D30   D(7,8,9,57)          -179.9987         estimate D2E/DX2                !
 ! D31   D(56,8,9,10)          179.1511         estimate D2E/DX2                !
 ! D32   D(56,8,9,57)           -0.2699         estimate D2E/DX2                !
 ! D33   D(8,9,10,11)         -179.0383         estimate D2E/DX2                !
 ! D34   D(8,9,10,58)            0.2092         estimate D2E/DX2                !
 ! D35   D(57,9,10,11)           0.369          estimate D2E/DX2                !
 ! D36   D(57,9,10,58)         179.6165         estimate D2E/DX2                !
 ! D37   D(9,10,11,12)         178.2827         estimate D2E/DX2                !
 ! D38   D(9,10,11,59)          -0.7761         estimate D2E/DX2                !
 ! D39   D(58,10,11,12)         -0.9876         estimate D2E/DX2                !
 ! D40   D(58,10,11,59)        179.9537         estimate D2E/DX2                !
 ! D41   D(10,11,12,13)       -178.5803         estimate D2E/DX2                !
 ! D42   D(10,11,12,60)          0.3057         estimate D2E/DX2                !
 ! D43   D(59,11,12,13)          0.4485         estimate D2E/DX2                !
 ! D44   D(59,11,12,60)        179.3345         estimate D2E/DX2                !
 ! D45   D(11,12,13,14)         -1.8195         estimate D2E/DX2                !
 ! D46   D(11,12,13,61)        177.5342         estimate D2E/DX2                !
 ! D47   D(60,12,13,14)        179.2694         estimate D2E/DX2                !
 ! D48   D(60,12,13,61)         -1.3769         estimate D2E/DX2                !
 ! D49   D(12,13,14,15)        178.2465         estimate D2E/DX2                !
 ! D50   D(12,13,14,62)         -0.9099         estimate D2E/DX2                !
 ! D51   D(61,13,14,15)         -1.0746         estimate D2E/DX2                !
 ! D52   D(61,13,14,62)        179.7689         estimate D2E/DX2                !
 ! D53   D(13,14,15,16)         -1.4801         estimate D2E/DX2                !
 ! D54   D(13,14,15,63)        179.962          estimate D2E/DX2                !
 ! D55   D(62,14,15,16)        177.7166         estimate D2E/DX2                !
 ! D56   D(62,14,15,63)         -0.8412         estimate D2E/DX2                !
 ! D57   D(14,15,16,17)       -177.6978         estimate D2E/DX2                !
 ! D58   D(14,15,16,64)          0.6275         estimate D2E/DX2                !
 ! D59   D(63,15,16,17)          0.8279         estimate D2E/DX2                !
 ! D60   D(63,15,16,64)        179.1531         estimate D2E/DX2                !
 ! D61   D(15,16,17,18)        176.6482         estimate D2E/DX2                !
 ! D62   D(15,16,17,65)         -1.5342         estimate D2E/DX2                !
 ! D63   D(64,16,17,18)         -1.7303         estimate D2E/DX2                !
 ! D64   D(64,16,17,65)       -179.9127         estimate D2E/DX2                !
 ! D65   D(16,17,18,19)       -177.2779         estimate D2E/DX2                !
 ! D66   D(16,17,18,66)          0.7874         estimate D2E/DX2                !
 ! D67   D(65,17,18,19)          0.899          estimate D2E/DX2                !
 ! D68   D(65,17,18,66)        178.9643         estimate D2E/DX2                !
 ! D69   D(17,18,19,20)        175.9614         estimate D2E/DX2                !
 ! D70   D(17,18,19,67)         -1.9816         estimate D2E/DX2                !
 ! D71   D(66,18,19,20)         -2.1139         estimate D2E/DX2                !
 ! D72   D(66,18,19,67)        179.9431         estimate D2E/DX2                !
 ! D73   D(18,19,20,21)       -177.0106         estimate D2E/DX2                !
 ! D74   D(18,19,20,68)          0.8802         estimate D2E/DX2                !
 ! D75   D(67,19,20,21)          0.9246         estimate D2E/DX2                !
 ! D76   D(67,19,20,68)        178.8154         estimate D2E/DX2                !
 ! D77   D(19,20,21,22)        175.5339         estimate D2E/DX2                !
 ! D78   D(19,20,21,69)         -2.299          estimate D2E/DX2                !
 ! D79   D(68,20,21,22)         -2.3673         estimate D2E/DX2                !
 ! D80   D(68,20,21,69)        179.7998         estimate D2E/DX2                !
 ! D81   D(20,21,22,23)       -176.9382         estimate D2E/DX2                !
 ! D82   D(20,21,22,70)          0.923          estimate D2E/DX2                !
 ! D83   D(69,21,22,23)          0.8871         estimate D2E/DX2                !
 ! D84   D(69,21,22,70)        178.7483         estimate D2E/DX2                !
 ! D85   D(21,22,23,24)        175.4393         estimate D2E/DX2                !
 ! D86   D(21,22,23,71)         -2.4431         estimate D2E/DX2                !
 ! D87   D(70,22,23,24)         -2.4329         estimate D2E/DX2                !
 ! D88   D(70,22,23,71)        179.6847         estimate D2E/DX2                !
 ! D89   D(22,23,24,25)       -177.0943         estimate D2E/DX2                !
 ! D90   D(22,23,24,72)          0.9041         estimate D2E/DX2                !
 ! D91   D(71,23,24,25)          0.7805         estimate D2E/DX2                !
 ! D92   D(71,23,24,72)        178.779          estimate D2E/DX2                !
 ! D93   D(23,24,25,26)        175.7103         estimate D2E/DX2                !
 ! D94   D(23,24,25,73)         -2.3887         estimate D2E/DX2                !
 ! D95   D(72,24,25,26)         -2.2973         estimate D2E/DX2                !
 ! D96   D(72,24,25,73)        179.6038         estimate D2E/DX2                !
 ! D97   D(24,25,26,27)       -177.4737         estimate D2E/DX2                !
 ! D98   D(24,25,26,74)          0.7845         estimate D2E/DX2                !
 ! D99   D(73,25,26,27)          0.5737         estimate D2E/DX2                !
 ! D100  D(73,25,26,74)        178.8319         estimate D2E/DX2                !
 ! D101  D(25,26,27,28)         -2.8            estimate D2E/DX2                !
 ! D102  D(25,26,27,75)        176.6588         estimate D2E/DX2                !
 ! D103  D(74,26,27,28)        178.8974         estimate D2E/DX2                !
 ! D104  D(74,26,27,75)         -1.6438         estimate D2E/DX2                !
 ! D105  D(26,27,28,29)        178.265          estimate D2E/DX2                !
 ! D106  D(26,27,28,76)         -1.4113         estimate D2E/DX2                !
 ! D107  D(75,27,28,29)         -1.1612         estimate D2E/DX2                !
 ! D108  D(75,27,28,76)        179.1624         estimate D2E/DX2                !
 ! D109  D(27,28,29,30)         -4.155          estimate D2E/DX2                !
 ! D110  D(27,28,29,77)        177.1839         estimate D2E/DX2                !
 ! D111  D(76,28,29,30)        175.5343         estimate D2E/DX2                !
 ! D112  D(76,28,29,77)         -3.1269         estimate D2E/DX2                !
 ! D113  D(28,29,30,31)       -178.8022         estimate D2E/DX2                !
 ! D114  D(28,29,30,78)          0.074          estimate D2E/DX2                !
 ! D115  D(77,29,30,31)         -0.198          estimate D2E/DX2                !
 ! D116  D(77,29,30,78)        178.6782         estimate D2E/DX2                !
 ! D117  D(29,30,31,32)         -3.0712         estimate D2E/DX2                !
 ! D118  D(29,30,31,79)        177.2225         estimate D2E/DX2                !
 ! D119  D(78,30,31,32)        177.9901         estimate D2E/DX2                !
 ! D120  D(78,30,31,79)         -1.7162         estimate D2E/DX2                !
 ! D121  D(30,31,32,33)        179.7889         estimate D2E/DX2                !
 ! D122  D(30,31,32,80)         -0.7865         estimate D2E/DX2                !
 ! D123  D(79,31,32,33)         -0.5221         estimate D2E/DX2                !
 ! D124  D(79,31,32,80)        178.9025         estimate D2E/DX2                !
 ! D125  D(31,32,33,34)         -4.1576         estimate D2E/DX2                !
 ! D126  D(31,32,33,81)        176.3273         estimate D2E/DX2                !
 ! D127  D(80,32,33,34)        176.3943         estimate D2E/DX2                !
 ! D128  D(80,32,33,81)         -3.1208         estimate D2E/DX2                !
 ! D129  D(32,33,34,35)        179.7034         estimate D2E/DX2                !
 ! D130  D(32,33,34,82)         -0.5712         estimate D2E/DX2                !
 ! D131  D(81,33,34,35)         -0.8013         estimate D2E/DX2                !
 ! D132  D(81,33,34,82)        178.924          estimate D2E/DX2                !
 ! D133  D(33,34,35,36)         -2.8153         estimate D2E/DX2                !
 ! D134  D(33,34,35,83)        178.0282         estimate D2E/DX2                !
 ! D135  D(82,34,35,36)        177.4437         estimate D2E/DX2                !
 ! D136  D(82,34,35,83)         -1.7127         estimate D2E/DX2                !
 ! D137  D(34,35,36,37)       -179.0164         estimate D2E/DX2                !
 ! D138  D(34,35,36,84)          0.0161         estimate D2E/DX2                !
 ! D139  D(83,35,36,37)          0.1178         estimate D2E/DX2                !
 ! D140  D(83,35,36,84)        179.1504         estimate D2E/DX2                !
 ! D141  D(35,36,37,38)        177.0168         estimate D2E/DX2                !
 ! D142  D(35,36,37,85)         -2.0279         estimate D2E/DX2                !
 ! D143  D(84,36,37,38)         -2.041          estimate D2E/DX2                !
 ! D144  D(84,36,37,85)        178.9143         estimate D2E/DX2                !
 ! D145  D(36,37,38,39)       -178.8072         estimate D2E/DX2                !
 ! D146  D(36,37,38,86)          0.1779         estimate D2E/DX2                !
 ! D147  D(85,37,38,39)          0.2329         estimate D2E/DX2                !
 ! D148  D(85,37,38,86)        179.218          estimate D2E/DX2                !
 ! D149  D(37,38,39,40)        177.0676         estimate D2E/DX2                !
 ! D150  D(37,38,39,87)         -1.9628         estimate D2E/DX2                !
 ! D151  D(86,38,39,40)         -1.9211         estimate D2E/DX2                !
 ! D152  D(86,38,39,87)        179.0484         estimate D2E/DX2                !
 ! D153  D(38,39,40,41)       -178.8082         estimate D2E/DX2                !
 ! D154  D(38,39,40,88)          0.2421         estimate D2E/DX2                !
 ! D155  D(87,39,40,41)          0.217          estimate D2E/DX2                !
 ! D156  D(87,39,40,88)        179.2673         estimate D2E/DX2                !
 ! D157  D(39,40,41,42)        177.4549         estimate D2E/DX2                !
 ! D158  D(39,40,41,89)         -1.7119         estimate D2E/DX2                !
 ! D159  D(88,40,41,42)         -1.5988         estimate D2E/DX2                !
 ! D160  D(88,40,41,89)        179.2344         estimate D2E/DX2                !
 ! D161  D(40,41,42,43)       -179.0078         estimate D2E/DX2                !
 ! D162  D(40,41,42,90)          0.2389         estimate D2E/DX2                !
 ! D163  D(89,41,42,43)          0.1548         estimate D2E/DX2                !
 ! D164  D(89,41,42,90)        179.4015         estimate D2E/DX2                !
 ! D165  D(41,42,43,44)        178.0986         estimate D2E/DX2                !
 ! D166  D(41,42,43,91)         -1.3062         estimate D2E/DX2                !
 ! D167  D(90,42,43,44)         -1.1511         estimate D2E/DX2                !
 ! D168  D(90,42,43,91)        179.4441         estimate D2E/DX2                !
 ! D169  D(42,43,44,45)       -179.3307         estimate D2E/DX2                !
 ! D170  D(42,43,44,92)          0.1835         estimate D2E/DX2                !
 ! D171  D(91,43,44,45)          0.0712         estimate D2E/DX2                !
 ! D172  D(91,43,44,92)        179.5854         estimate D2E/DX2                !
 ! D173  D(43,44,45,46)        178.8522         estimate D2E/DX2                !
 ! D174  D(43,44,45,93)         -0.8242         estimate D2E/DX2                !
 ! D175  D(92,44,45,46)         -0.664          estimate D2E/DX2                !
 ! D176  D(92,44,45,93)        179.6595         estimate D2E/DX2                !
 ! D177  D(44,45,46,47)       -179.677          estimate D2E/DX2                !
 ! D178  D(44,45,46,94)          0.0999         estimate D2E/DX2                !
 ! D179  D(93,45,46,47)         -0.0021         estimate D2E/DX2                !
 ! D180  D(93,45,46,94)        179.7748         estimate D2E/DX2                !
 ! D181  D(45,46,47,48)        179.5404         estimate D2E/DX2                !
 ! D182  D(45,46,47,95)         -0.3589         estimate D2E/DX2                !
 ! D183  D(94,46,47,48)         -0.2376         estimate D2E/DX2                !
 ! D184  D(94,46,47,95)        179.8631         estimate D2E/DX2                !
 ! D185  D(46,47,48,96)          0.0131         estimate D2E/DX2                !
 ! D186  D(46,47,48,97)       -179.9277         estimate D2E/DX2                !
 ! D187  D(95,47,48,96)        179.9133         estimate D2E/DX2                !
 ! D188  D(95,47,48,97)         -0.0275         estimate D2E/DX2                !
 --------------------------------------------------------------------------------
 Trust Radius=3.00D-01 FncErr=1.00D-07 GrdErr=1.00D-06 EigMax=2.50D+02 EigMin=1.00D-04
 Number of steps in this run=    439 maximum allowed number of steps=    588.
 GradGradGradGradGradGradGradGradGradGradGradGradGradGradGradGradGradGrad

 Stoichiometry    C48H50
 Framework group  C1[X(C48H50)]
 Deg. of freedom   288
 Full point group                 C1      NOp   1
 Largest Abelian subgroup         C1      NOp   1
 Largest concise Abelian subgroup C1      NOp   1
                         Standard orientation:                         
 ---------------------------------------------------------------------
 Center     Atomic      Atomic             Coordinates (Angstroms)
 Number     Number       Type             X           Y           Z
 ---------------------------------------------------------------------
      1          6           0       26.643354   -2.321766    1.802642
      2          6           0       25.739393   -1.339400    1.789783
      3          6           0       24.343762   -1.591971    1.376685
      4          6           0       23.438045   -0.604613    1.368098
      5          6           0       22.040335   -0.858359    0.957404
      6          6           0       21.134092    0.135564    0.960692
      7          6           0       19.703589   -0.006143    0.575517
      8          6           0       19.129703   -1.153238    0.155898
      9          6           0       17.697514   -1.300758   -0.218370
     10          6           0       16.778566   -0.319214   -0.180094
     11          6           0       15.373569   -0.590529   -0.557339
     12          6           0       14.444560    0.379686   -0.487560
     13          6           0       13.002185    0.211034   -0.812399
     14          6           0       12.440118   -0.933684   -1.255005
     15          6           0       10.991465   -1.112994   -1.544574
     16          6           0       10.046113   -0.171256   -1.378262
     17          6           0        8.624252   -0.473910   -1.650460
     18          6           0        7.673788    0.441962   -1.421767
     19          6           0        6.244384    0.131286   -1.633444
     20          6           0        5.301128    1.030319   -1.323914
     21          6           0        3.863561    0.717495   -1.465799
     22          6           0        2.938312    1.599584   -1.066195
     23          6           0        1.494410    1.290552   -1.132525
     24          6           0        0.599235    2.157334   -0.640760
     25          6           0       -0.849404    1.860081   -0.629444
     26          6           0       -1.699624    2.723332   -0.047200
     27          6           0       -3.166566    2.538140    0.089564
     28          6           0       -3.872016    1.496131   -0.399664
     29          6           0       -5.341729    1.311465   -0.218587
     30          6           0       -6.125545    2.122522    0.523371
     31          6           0       -7.584973    1.952056    0.743744
     32          6           0       -8.358604    0.994855    0.188982
     33          6           0       -9.823305    0.848034    0.434793
     34          6           0      -10.531687    1.603507    1.301098
     35          6           0      -11.988969    1.480161    1.557620
     36          6           0      -12.830055    0.638967    0.931793
     37          6           0      -14.266643    0.647310    1.283432
     38          6           0      -15.155947   -0.128211    0.649546
     39          6           0      -16.586528   -0.067326    1.017146
     40          6           0      -17.511509   -0.784718    0.366609
     41          6           0      -18.937015   -0.679651    0.743701
     42          6           0      -19.887855   -1.347011    0.077423
     43          6           0      -21.309069   -1.208667    0.459767
     44          6           0      -22.276350   -1.838904   -0.218969
     45          6           0      -23.694611   -1.679495    0.165853
     46          6           0      -24.670490   -2.287558   -0.520849
     47          6           0      -26.086603   -2.118070   -0.134839
     48          6           0      -27.065370   -2.713564   -0.819856
     49          1           0       26.378145   -3.333466    1.509852
     50          1           0       26.043512   -0.340332    2.090301
     51          1           0       24.052170   -2.596240    1.077481
     52          1           0       23.731291    0.398598    1.669147
     53          1           0       21.772047   -1.864465    0.660056
     54          1           0       21.450655    1.127893    1.271097
     55          1           0       19.116947    0.899392    0.654810
     56          1           0       19.716349   -2.058369    0.074809
     57          1           0       17.387365   -2.292392   -0.537247
     58          1           0       17.039147    0.683118    0.136791
     59          1           0       15.115472   -1.593190   -0.874583
     60          1           0       14.747722    1.368412   -0.153262
     61          1           0       12.394770    1.092824   -0.658406
     62          1           0       13.048344   -1.814245   -1.412477
     63          1           0       10.690695   -2.096414   -1.896023
     64          1           0       10.295811    0.818740   -1.017325
     65          1           0        8.347067   -1.461309   -2.012305
     66          1           0        7.951943    1.423284   -1.043792
     67          1           0        5.958299   -0.847202   -2.011928
     68          1           0        5.593902    2.000165   -0.927559
     69          1           0        3.559297   -0.247564   -1.863896
     70          1           0        3.253567    2.554188   -0.650368
     71          1           0        1.163763    0.342688   -1.550226
     72          1           0        0.946330    3.093185   -0.207806
     73          1           0       -1.196424    0.931058   -1.066350
     74          1           0       -1.296816    3.632119    0.392861
     75          1           0       -3.660546    3.325106    0.641162
     76          1           0       -3.369690    0.719585   -0.962700
     77          1           0       -5.768319    0.447829   -0.712416
     78          1           0       -5.700540    2.973741    1.035621
     79          1           0       -8.016751    2.685416    1.409666
     80          1           0       -7.924699    0.273275   -0.491404
     81          1           0      -10.316913    0.068266   -0.131453
     82          1           0      -10.045461    2.372614    1.883693
     83          1           0      -12.391290    2.149191    2.314259
     84          1           0      -12.483435   -0.038892    0.160394
     85          1           0      -14.609423    1.315822    2.070539
     86          1           0      -14.830930   -0.792217   -0.147867
     87          1           0      -16.893076    0.590565    1.827697
     88          1           0      -17.217881   -1.436431   -0.452912
     89          1           0      -19.216747   -0.033958    1.573436
     90          1           0      -19.617185   -1.986793   -0.759300
     91          1           0      -21.570639   -0.573921    1.303664
     92          1           0      -22.020222   -2.469134   -1.067498
     93          1           0      -23.946009   -1.052657    1.018653
     94          1           0      -24.422473   -2.911929   -1.376155
     95          1           0      -26.344837   -1.498038    0.719630
     96          1           0      -26.848696   -3.339736   -1.680255
     97          1           0      -28.098986   -2.574554   -0.519654
     98          1           0       27.663586   -2.115817    2.109826
 ---------------------------------------------------------------------
 Rotational constants (GHZ):           0.2654649           0.0031790           0.0031658
 Standard basis: 6-31G(d,p) (6D, 7F)
 There are   970 symmetry adapted cartesian basis functions of A   symmetry.
 There are   970 symmetry adapted basis functions of A   symmetry.
   970 basis functions,  1694 primitive gaussians,   970 cartesian basis functions
   169 alpha electrons      169 beta electrons
       nuclear repulsion energy      3529.6257926679 Hartrees.
 NAtoms=   98 NActive=   98 NUniq=   98 SFac= 1.00D+00 NAtFMM=   60 NAOKFM=T Big=T
 Integral buffers will be    131072 words long.
 Raffenetti 2 integral format.
 Two-electron integral symmetry is turned on.
 One-electron integrals computed using PRISM.
 NBasis=   970 RedAO= T EigKep=  7.38D-04  NBF=   970
 NBsUse=   970 1.00D-06 EigRej= -1.00D+00 NBFU=   970
 ExpMin= 1.61D-01 ExpMax= 3.05D+03 ExpMxC= 4.57D+02 IAcc=3 IRadAn=         5 AccDes= 0.00D+00
 Harris functional with IExCor=  402 and IRadAn=       5 diagonalized for initial guess.
 HarFok:  IExCor=  402 AccDes= 0.00D+00 IRadAn=         5 IDoV= 1 UseB2=F ITyADJ=14
 ICtDFT=  3500011 ScaDFX=  1.000000  1.000000  1.000000  1.000000
 FoFCou: FMM=F IPFlag=           0 FMFlag=      100000 FMFlg1=        2001
         NFxFlg=           0 DoJE=T BraDBF=F KetDBF=T FulRan=T
         wScrn=  0.000000 ICntrl=       500 IOpCl=  0 I1Cent=   200000004 NGrid=           0
         NMat0=    1 NMatS0=      1 NMatT0=    0 NMatD0=    1 NMtDS0=    0 NMtDT0=    0
 Petite list used in FoFCou.
 Requested convergence on RMS density matrix=1.00D-08 within 128 cycles.
 Requested convergence on MAX density matrix=1.00D-06.
 Requested convergence on             energy=1.00D-06.
 No special actions if energy rises.
 Integral accuracy reduced to 1.0D-05 until final iterations.
 Initial convergence to 1.0D-05 achieved.  Increase integral accuracy.
 SCF Done:  E(RB3LYP) =  -1858.93686021     A.U. after   13 cycles
            NFock= 13  Conv=0.73D-08     -V/T= 2.0101

 **********************************************************************

            Population analysis using the SCF Density.

 **********************************************************************

 Orbital symmetries:
       Occupied  (A) (A) (A) (A) (A) (A) (A) (A) (A) (A) (A) (A)
                 (A) (A) (A) (A) (A) (A) (A) (A) (A) (A) (A) (A)
                 (A) (A) (A) (A) (A) (A) (A) (A) (A) (A) (A) (A)
                 (A) (A) (A) (A) (A) (A) (A) (A) (A) (A) (A) (A)
                 (A) (A) (A) (A) (A) (A) (A) (A) (A) (A) (A) (A)
                 (A) (A) (A) (A) (A) (A) (A) (A) (A) (A) (A) (A)
                 (A) (A) (A) (A) (A) (A) (A) (A) (A) (A) (A) (A)
                 (A) (A) (A) (A) (A) (A) (A) (A) (A) (A) (A) (A)
                 (A) (A) (A) (A) (A) (A) (A) (A) (A) (A) (A) (A)
                 (A) (A) (A) (A) (A) (A) (A) (A) (A) (A) (A) (A)
                 (A) (A) (A) (A) (A) (A) (A) (A) (A) (A) (A) (A)
                 (A) (A) (A) (A) (A) (A) (A) (A) (A) (A) (A) (A)
                 (A) (A) (A) (A) (A) (A) (A) (A) (A) (A) (A) (A)
                 (A) (A) (A) (A) (A) (A) (A) (A) (A) (A) (A) (A)
                 (A)
       Virtual   (A) (A) (A) (A) (A) (A) (A) (A) (A) (A) (A) (A)
                 (A) (A) (A) (A) (A) (A) (A) (A) (A) (A) (A) (A)
                 (A) (A) (A) (A) (A) (A) (A) (A) (A) (A) (A) (A)
                 (A) (A) (A) (A) (A) (A) (A) (A) (A) (A) (A) (A)
                 (A) (A) (A) (A) (A) (A) (A) (A) (A) (A) (A) (A)
                 (A) (A) (A) (A) (A) (A) (A) (A) (A) (A) (A) (A)
                 (A) (A) (A) (A) (A) (A) (A) (A) (A) (A) (A) (A)
                 (A) (A) (A) (A) (A) (A) (A) (A) (A) (A) (A) (A)
                 (A) (A) (A) (A) (A) (A) (A) (A) (A) (A) (A) (A)
                 (A) (A) (A) (A) (A) (A) (A) (A) (A) (A) (A) (A)
                 (A) (A) (A) (A) (A) (A) (A) (A) (A) (A) (A) (A)
                 (A) (A) (A) (A) (A) (A) (A) (A) (A) (A) (A) (A)
                 (A) (A) (A) (A) (A) (A) (A) (A) (A) (A) (A) (A)
                 (A) (A) (A) (A) (A) (A) (A) (A) (A) (A) (A) (A)
                 (A) (A) (A) (A) (A) (A) (A) (A) (A) (A) (A) (A)
                 (A) (A) (A) (A) (A) (A) (A) (A) (A) (A) (A) (A)
                 (A) (A) (A) (A) (A) (A) (A) (A) (A) (A) (A) (A)
                 (A) (A) (A) (A) (A) (A) (A) (A) (A) (A) (A) (A)
                 (A) (A) (A) (A) (A) (A) (A) (A) (A) (A) (A) (A)
                 (A) (A) (A) (A) (A) (A) (A) (A) (A) (A) (A) (A)
                 (A) (A) (A) (A) (A) (A) (A) (A) (A) (A) (A) (A)
                 (A) (A) (A) (A) (A) (A) (A) (A) (A) (A) (A) (A)
                 (A) (A) (A) (A) (A) (A) (A) (A) (A) (A) (A) (A)
                 (A) (A) (A) (A) (A) (A) (A) (A) (A) (A) (A) (A)
                 (A) (A) (A) (A) (A) (A) (A) (A) (A) (A) (A) (A)
                 (A) (A) (A) (A) (A) (A) (A) (A) (A) (A) (A) (A)
                 (A) (A) (A) (A) (A) (A) (A) (A) (A) (A) (A) (A)
                 (A) (A) (A) (A) (A) (A) (A) (A) (A) (A) (A) (A)
                 (A) (A) (A) (A) (A) (A) (A) (A) (A) (A) (A) (A)
                 (A) (A) (A) (A) (A) (A) (A) (A) (A) (A) (A) (A)
                 (A) (A) (A) (A) (A) (A) (A) (A) (A) (A) (A) (A)
                 (A) (A) (A) (A) (A) (A) (A) (A) (A) (A) (A) (A)
                 (A) (A) (A) (A) (A) (A) (A) (A) (A) (A) (A) (A)
                 (A) (A) (A) (A) (A) (A) (A) (A) (A) (A) (A) (A)
                 (A) (A) (A) (A) (A) (A) (A) (A) (A) (A) (A) (A)
                 (A) (A) (A) (A) (A) (A) (A) (A) (A) (A) (A) (A)
                 (A) (A) (A) (A) (A) (A) (A) (A) (A) (A) (A) (A)
                 (A) (A) (A) (A) (A) (A) (A) (A) (A) (A) (A) (A)
                 (A) (A) (A) (A) (A) (A) (A) (A) (A) (A) (A) (A)
                 (A) (A) (A) (A) (A) (A) (A) (A) (A) (A) (A) (A)
                 (A) (A) (A) (A) (A) (A) (A) (A) (A) (A) (A) (A)
                 (A) (A) (A) (A) (A) (A) (A) (A) (A) (A) (A) (A)
                 (A) (A) (A) (A) (A) (A) (A) (A) (A) (A) (A) (A)
                 (A) (A) (A) (A) (A) (A) (A) (A) (A) (A) (A) (A)
                 (A) (A) (A) (A) (A) (A) (A) (A) (A) (A) (A) (A)
                 (A) (A) (A) (A) (A) (A) (A) (A) (A) (A) (A) (A)
                 (A) (A) (A) (A) (A) (A) (A) (A) (A) (A) (A) (A)
                 (A) (A) (A) (A) (A) (A) (A) (A) (A) (A) (A) (A)
                 (A) (A) (A) (A) (A) (A) (A) (A) (A) (A) (A) (A)
                 (A) (A) (A) (A) (A) (A) (A) (A) (A) (A) (A) (A)
                 (A) (A) (A) (A) (A) (A) (A) (A) (A) (A) (A) (A)
                 (A) (A) (A) (A) (A) (A) (A) (A) (A) (A) (A) (A)
                 (A) (A) (A) (A) (A) (A) (A) (A) (A) (A) (A) (A)
                 (A) (A) (A) (A) (A) (A) (A) (A) (A) (A) (A) (A)
                 (A) (A) (A) (A) (A) (A) (A) (A) (A) (A) (A) (A)
                 (A) (A) (A) (A) (A) (A) (A) (A) (A) (A) (A) (A)
                 (A) (A) (A) (A) (A) (A) (A) (A) (A) (A) (A) (A)
                 (A) (A) (A) (A) (A) (A) (A) (A) (A) (A) (A) (A)
                 (A) (A) (A) (A) (A) (A) (A) (A) (A) (A) (A) (A)
                 (A) (A) (A) (A) (A) (A) (A) (A) (A) (A) (A) (A)
                 (A) (A) (A) (A) (A) (A) (A) (A) (A) (A) (A) (A)
                 (A) (A) (A) (A) (A) (A) (A) (A) (A) (A) (A) (A)
                 (A) (A) (A) (A) (A) (A) (A) (A) (A) (A) (A) (A)
                 (A) (A) (A) (A) (A) (A) (A) (A) (A) (A) (A) (A)
                 (A) (A) (A) (A) (A) (A) (A) (A) (A) (A) (A) (A)
                 (A) (A) (A) (A) (A) (A) (A) (A) (A) (A) (A) (A)
                 (A) (A) (A) (A) (A) (A) (A) (A) (A)
 The electronic state is 1-A.
 Alpha  occ. eigenvalues --  -10.19429 -10.19429 -10.19393 -10.19391 -10.19311
 Alpha  occ. eigenvalues --  -10.19302 -10.19299 -10.19291 -10.19277 -10.19264
 Alpha  occ. eigenvalues --  -10.19256 -10.19249 -10.19235 -10.19222 -10.19222
 Alpha  occ. eigenvalues --  -10.19219 -10.19217 -10.19216 -10.19209 -10.19202
 Alpha  occ. eigenvalues --  -10.19199 -10.19195 -10.19192 -10.19187 -10.19186
 Alpha  occ. eigenvalues --  -10.19184 -10.19179 -10.19172 -10.19161 -10.19159
 Alpha  occ. eigenvalues --  -10.19158 -10.19135 -10.19132 -10.19126 -10.19124
 Alpha  occ. eigenvalues --  -10.19116 -10.19102 -10.19094 -10.19085 -10.19081
 Alpha  occ. eigenvalues --  -10.19066 -10.19063 -10.19027 -10.19019 -10.18998
 Alpha  occ. eigenvalues --  -10.18918 -10.17982 -10.17898  -0.82958  -0.82870
 Alpha  occ. eigenvalues --   -0.82678  -0.82451  -0.82219  -0.81890  -0.81534
 Alpha  occ. eigenvalues --   -0.81059  -0.80562  -0.80009  -0.79411  -0.78752
 Alpha  occ. eigenvalues --   -0.78045  -0.77288  -0.76485  -0.75634  -0.74705
 Alpha  occ. eigenvalues --   -0.73876  -0.72933  -0.71911  -0.70922  -0.70143
 Alpha  occ. eigenvalues --   -0.68946  -0.68269  -0.65144  -0.64371  -0.62810
 Alpha  occ. eigenvalues --   -0.62200  -0.61420  -0.60098  -0.58927  -0.58727
 Alpha  occ. eigenvalues --   -0.57743  -0.57047  -0.56870  -0.56841  -0.56468
 Alpha  occ. eigenvalues --   -0.56169  -0.55884  -0.55559  -0.55338  -0.55118
 Alpha  occ. eigenvalues --   -0.54998  -0.54493  -0.52746  -0.52283  -0.51792
 Alpha  occ. eigenvalues --   -0.50149  -0.50094  -0.49102  -0.48552  -0.48308
 Alpha  occ. eigenvalues --   -0.47829  -0.47473  -0.47006  -0.46917  -0.46278
 Alpha  occ. eigenvalues --   -0.45932  -0.45515  -0.44959  -0.44745  -0.44415
 Alpha  occ. eigenvalues --   -0.43786  -0.43461  -0.43014  -0.42712  -0.41532
 Alpha  occ. eigenvalues --   -0.41491  -0.40903  -0.40643  -0.40107  -0.39867
 Alpha  occ. eigenvalues --   -0.39317  -0.39111  -0.38762  -0.38509  -0.38199
 Alpha  occ. eigenvalues --   -0.37999  -0.37863  -0.37574  -0.37373  -0.37066
 Alpha  occ. eigenvalues --   -0.36785  -0.36436  -0.36285  -0.36034  -0.35858
 Alpha  occ. eigenvalues --   -0.35573  -0.35284  -0.35214  -0.35170  -0.35132
 Alpha  occ. eigenvalues --   -0.34938  -0.34733  -0.34679  -0.34484  -0.34359
 Alpha  occ. eigenvalues --   -0.34320  -0.34068  -0.33942  -0.33649  -0.33492
 Alpha  occ. eigenvalues --   -0.33187  -0.33185  -0.32885  -0.32260  -0.31556
 Alpha  occ. eigenvalues --   -0.30797  -0.29954  -0.29052  -0.28077  -0.27043
 Alpha  occ. eigenvalues --   -0.25951  -0.24791  -0.23613  -0.22373  -0.21102
 Alpha  occ. eigenvalues --   -0.19814  -0.18632  -0.17499  -0.16713
 Alpha virt. eigenvalues --   -0.08582  -0.07730  -0.06240  -0.05087  -0.03779
 Alpha virt. eigenvalues --   -0.02199  -0.00753   0.00262   0.01687   0.03095
 Alpha virt. eigenvalues --    0.04354   0.05255   0.06483   0.07299   0.07795
 Alpha virt. eigenvalues --    0.07918   0.08146   0.08324   0.08627   0.08809
 Alpha virt. eigenvalues --    0.08997   0.09101   0.09508   0.09534   0.09707
 Alpha virt. eigenvalues --    0.09902   0.10152   0.10704   0.11378   0.11678
 Alpha virt. eigenvalues --    0.11922   0.12062   0.12113   0.12133   0.12480
 Alpha virt. eigenvalues --    0.12568   0.12623   0.12928   0.13065   0.13128
 Alpha virt. eigenvalues --    0.13147   0.13617   0.13986   0.14172   0.14204
 Alpha virt. eigenvalues --    0.14250   0.14346   0.14478   0.14628   0.14798
 Alpha virt. eigenvalues --    0.14918   0.15164   0.15413   0.15468   0.15775
 Alpha virt. eigenvalues --    0.15810   0.16202   0.16596   0.17308   0.18130
 Alpha virt. eigenvalues --    0.18497   0.19131   0.19647   0.19752   0.19960
 Alpha virt. eigenvalues --    0.20615   0.21104   0.21281   0.21914   0.22474
 Alpha virt. eigenvalues --    0.22630   0.22828   0.24751   0.25753   0.25893
 Alpha virt. eigenvalues --    0.27139   0.27244   0.27351   0.28271   0.28483
 Alpha virt. eigenvalues --    0.28603   0.28906   0.29010   0.30065   0.31128
 Alpha virt. eigenvalues --    0.31432   0.31848   0.32281   0.32657   0.32730
 Alpha virt. eigenvalues --    0.33248   0.33485   0.33753   0.34260   0.34951
 Alpha virt. eigenvalues --    0.35674   0.36015   0.36109   0.36210   0.36475
 Alpha virt. eigenvalues --    0.37215   0.38113   0.38484   0.38990   0.39515
 Alpha virt. eigenvalues --    0.39796   0.40107   0.40725   0.41519   0.41675
 Alpha virt. eigenvalues --    0.41745   0.41888   0.42063   0.42703   0.43544
 Alpha virt. eigenvalues --    0.44434   0.44924   0.45541   0.46693   0.47348
 Alpha virt. eigenvalues --    0.48186   0.48845   0.49833   0.50643   0.51331
 Alpha virt. eigenvalues --    0.51416   0.51632   0.51795   0.52005   0.52343
 Alpha virt. eigenvalues --    0.52492   0.52760   0.52952   0.53103   0.53605
 Alpha virt. eigenvalues --    0.53706   0.54211   0.54355   0.54768   0.54903
 Alpha virt. eigenvalues --    0.55188   0.55549   0.55814   0.55962   0.56073
 Alpha virt. eigenvalues --    0.56359   0.56857   0.57081   0.57197   0.57424
 Alpha virt. eigenvalues --    0.57539   0.57683   0.58084   0.58152   0.58466
 Alpha virt. eigenvalues --    0.58718   0.58818   0.58944   0.59036   0.59052
 Alpha virt. eigenvalues --    0.59227   0.59324   0.59470   0.59804   0.60233
 Alpha virt. eigenvalues --    0.60329   0.60452   0.60814   0.60887   0.60911
 Alpha virt. eigenvalues --    0.61122   0.61171   0.61754   0.61972   0.62081
 Alpha virt. eigenvalues --    0.62379   0.62661   0.62929   0.63040   0.63290
 Alpha virt. eigenvalues --    0.63641   0.63764   0.64329   0.64465   0.64520
 Alpha virt. eigenvalues --    0.64603   0.64682   0.65101   0.65163   0.65209
 Alpha virt. eigenvalues --    0.65421   0.65683   0.65970   0.66066   0.66207
 Alpha virt. eigenvalues --    0.66456   0.66525   0.66636   0.66702   0.67522
 Alpha virt. eigenvalues --    0.67645   0.67940   0.68256   0.68691   0.68982
 Alpha virt. eigenvalues --    0.69459   0.69787   0.70120   0.70716   0.71331
 Alpha virt. eigenvalues --    0.71889   0.72591   0.73363   0.73985   0.74438
 Alpha virt. eigenvalues --    0.75253   0.75462   0.75815   0.76209   0.78763
 Alpha virt. eigenvalues --    0.78783   0.79430   0.79554   0.79868   0.80495
 Alpha virt. eigenvalues --    0.80843   0.81325   0.81646   0.81868   0.82025
 Alpha virt. eigenvalues --    0.82251   0.82910   0.83095   0.83616   0.83836
 Alpha virt. eigenvalues --    0.84206   0.84534   0.84639   0.84824   0.84977
 Alpha virt. eigenvalues --    0.85118   0.85390   0.85570   0.85770   0.85918
 Alpha virt. eigenvalues --    0.86154   0.86302   0.86720   0.86785   0.87011
 Alpha virt. eigenvalues --    0.87198   0.87303   0.87427   0.87690   0.87725
 Alpha virt. eigenvalues --    0.88186   0.88368   0.88503   0.88863   0.89113
 Alpha virt. eigenvalues --    0.89409   0.89818   0.90762   0.90980   0.91187
 Alpha virt. eigenvalues --    0.91417   0.91519   0.91889   0.92108   0.92244
 Alpha virt. eigenvalues --    0.92460   0.92926   0.93156   0.93386   0.93669
 Alpha virt. eigenvalues --    0.94077   0.94520   0.95336   0.95668   0.96077
 Alpha virt. eigenvalues --    0.96255   0.96955   0.97169   0.97516   0.97663
 Alpha virt. eigenvalues --    0.99103   1.01377   1.02451   1.02740   1.03032
 Alpha virt. eigenvalues --    1.03322   1.03448   1.03745   1.04099   1.04314
 Alpha virt. eigenvalues --    1.04408   1.05138   1.05557   1.05851   1.06073
 Alpha virt. eigenvalues --    1.06531   1.06693   1.07186   1.07597   1.08026
 Alpha virt. eigenvalues --    1.08351   1.08581   1.08770   1.09120   1.10033
 Alpha virt. eigenvalues --    1.10307   1.10676   1.10744   1.11190   1.11452
 Alpha virt. eigenvalues --    1.12239   1.14301   1.15184   1.17027   1.17228
 Alpha virt. eigenvalues --    1.17949   1.18709   1.18812   1.19110   1.20366
 Alpha virt. eigenvalues --    1.21031   1.21081   1.21513   1.22425   1.23696
 Alpha virt. eigenvalues --    1.24417   1.26513   1.26970   1.27545   1.28120
 Alpha virt. eigenvalues --    1.28492   1.28783   1.28846   1.29148   1.29413
 Alpha virt. eigenvalues --    1.29904   1.29947   1.30026   1.30128   1.30271
 Alpha virt. eigenvalues --    1.30594   1.30664   1.30781   1.31163   1.31295
 Alpha virt. eigenvalues --    1.31324   1.31436   1.31549   1.31800   1.32000
 Alpha virt. eigenvalues --    1.32255   1.32359   1.32471   1.32566   1.32793
 Alpha virt. eigenvalues --    1.32824   1.33013   1.33134   1.33568   1.33801
 Alpha virt. eigenvalues --    1.34050   1.34661   1.34890   1.36623   1.36919
 Alpha virt. eigenvalues --    1.37360   1.37587   1.37759   1.38567   1.40023
 Alpha virt. eigenvalues --    1.40860   1.40922   1.41838   1.42322   1.42957
 Alpha virt. eigenvalues --    1.43440   1.43943   1.44248   1.44886   1.45357
 Alpha virt. eigenvalues --    1.45709   1.45918   1.46512   1.46617   1.46853
 Alpha virt. eigenvalues --    1.46946   1.47156   1.48031   1.48632   1.48644
 Alpha virt. eigenvalues --    1.48801   1.49331   1.49608   1.50380   1.50597
 Alpha virt. eigenvalues --    1.50633   1.51124   1.51457   1.51829   1.51862
 Alpha virt. eigenvalues --    1.52396   1.52527   1.53383   1.57439   1.61366
 Alpha virt. eigenvalues --    1.62587   1.67909   1.73971   1.75017   1.75326
 Alpha virt. eigenvalues --    1.75739   1.75805   1.76253   1.76381   1.76500
 Alpha virt. eigenvalues --    1.76575   1.76645   1.76762   1.76788   1.76949
 Alpha virt. eigenvalues --    1.77133   1.77427   1.77961   1.78105   1.78148
 Alpha virt. eigenvalues --    1.78276   1.78507   1.78781   1.78996   1.79430
 Alpha virt. eigenvalues --    1.83036   1.83126   1.85202   1.85802   1.85987
 Alpha virt. eigenvalues --    1.86141   1.86174   1.86269   1.87243   1.87999
 Alpha virt. eigenvalues --    1.88297   1.88922   1.89730   1.89769   1.91028
 Alpha virt. eigenvalues --    1.91940   1.92095   1.92316   1.92612   1.92735
 Alpha virt. eigenvalues --    1.92877   1.93086   1.93507   1.93607   1.93666
 Alpha virt. eigenvalues --    1.93865   1.94355   1.94383   1.94507   1.94820
 Alpha virt. eigenvalues --    1.94932   1.95254   1.96161   1.96420   1.96548
 Alpha virt. eigenvalues --    1.96687   1.97646   1.97899   1.98141   1.98347
 Alpha virt. eigenvalues --    1.98801   1.99806   2.01134   2.02158   2.02708
 Alpha virt. eigenvalues --    2.03066   2.03303   2.03638   2.04360   2.04535
 Alpha virt. eigenvalues --    2.05427   2.05813   2.06328   2.07186   2.07616
 Alpha virt. eigenvalues --    2.07957   2.08433   2.08835   2.08989   2.09845
 Alpha virt. eigenvalues --    2.10216   2.10459   2.10713   2.11364   2.11524
 Alpha virt. eigenvalues --    2.12170   2.13002   2.14082   2.14261   2.14619
 Alpha virt. eigenvalues --    2.15198   2.15399   2.15759   2.16362   2.16516
 Alpha virt. eigenvalues --    2.17596   2.18007   2.18118   2.18307   2.18395
 Alpha virt. eigenvalues --    2.19302   2.19622   2.20584   2.20725   2.21463
 Alpha virt. eigenvalues --    2.21545   2.21819   2.22236   2.22457   2.22496
 Alpha virt. eigenvalues --    2.23457   2.24258   2.24336   2.25380   2.25953
 Alpha virt. eigenvalues --    2.26734   2.26958   2.27643   2.28283   2.28990
 Alpha virt. eigenvalues --    2.29562   2.30314   2.30915   2.31838   2.32022
 Alpha virt. eigenvalues --    2.32968   2.33577   2.34020   2.34905   2.35574
 Alpha virt. eigenvalues --    2.35913   2.36647   2.37227   2.37362   2.37951
 Alpha virt. eigenvalues --    2.38232   2.39164   2.40783   2.41593   2.41612
 Alpha virt. eigenvalues --    2.42560   2.44054   2.44311   2.44629   2.44827
 Alpha virt. eigenvalues --    2.45184   2.45730   2.46392   2.46581   2.46830
 Alpha virt. eigenvalues --    2.47241   2.47363   2.47640   2.48123   2.48307
 Alpha virt. eigenvalues --    2.48542   2.48700   2.48997   2.49207   2.49522
 Alpha virt. eigenvalues --    2.50058   2.50317   2.50332   2.50738   2.51240
 Alpha virt. eigenvalues --    2.51314   2.51574   2.51957   2.52081   2.52443
 Alpha virt. eigenvalues --    2.52766   2.52790   2.53190   2.53533   2.53640
 Alpha virt. eigenvalues --    2.53856   2.54519   2.54573   2.54982   2.55292
 Alpha virt. eigenvalues --    2.55700   2.55853   2.56389   2.56402   2.56548
 Alpha virt. eigenvalues --    2.57407   2.57776   2.57983   2.58486   2.58753
 Alpha virt. eigenvalues --    2.59174   2.59467   2.59848   2.59986   2.60040
 Alpha virt. eigenvalues --    2.60789   2.61076   2.61092   2.61402   2.61890
 Alpha virt. eigenvalues --    2.62496   2.62653   2.62897   2.63289   2.63839
 Alpha virt. eigenvalues --    2.63901   2.64268   2.65009   2.65352   2.65726
 Alpha virt. eigenvalues --    2.66355   2.66741   2.66989   2.67347   2.67392
 Alpha virt. eigenvalues --    2.67790   2.68208   2.68414   2.68820   2.69080
 Alpha virt. eigenvalues --    2.69232   2.69569   2.69645   2.69865   2.70208
 Alpha virt. eigenvalues --    2.70316   2.70629   2.70717   2.70916   2.71437
 Alpha virt. eigenvalues --    2.71466   2.71868   2.72064   2.72342   2.73137
 Alpha virt. eigenvalues --    2.73421   2.74208   2.75960   2.78652   2.78695
 Alpha virt. eigenvalues --    2.79097   2.79817   2.82410   2.82966   2.83876
 Alpha virt. eigenvalues --    2.85066   2.86195   2.86449   2.86607   2.86739
 Alpha virt. eigenvalues --    2.88045   2.88676   2.88933   2.90003   2.90768
 Alpha virt. eigenvalues --    2.91112   2.91272   2.91760   2.92152   2.92537
 Alpha virt. eigenvalues --    2.92805   2.93711   2.94203   2.94458   2.94801
 Alpha virt. eigenvalues --    2.95556   2.96204   2.96908   2.97310   2.97633
 Alpha virt. eigenvalues --    2.97969   2.98354   2.99015   2.99708   2.99788
 Alpha virt. eigenvalues --    2.99884   3.00013   3.00383   3.00907   3.01210
 Alpha virt. eigenvalues --    3.02938   3.03351   3.05328   3.10942   3.16011
 Alpha virt. eigenvalues --    3.16221   3.16442   3.20249   3.27971   3.28044
 Alpha virt. eigenvalues --    3.32587   3.32939   3.32953   3.33114   3.33287
 Alpha virt. eigenvalues --    3.33308   3.33747   3.34859   3.35414   3.35516
 Alpha virt. eigenvalues --    3.35608   3.36548   3.37443   3.37666   3.38575
 Alpha virt. eigenvalues --    3.40877   3.41245   3.43440   3.44236   3.44617
 Alpha virt. eigenvalues --    3.45384   3.49067   3.50410   3.52262   3.52658
 Alpha virt. eigenvalues --    3.52850   3.54080   3.54923   3.55198   3.56158
 Alpha virt. eigenvalues --    3.56379   3.58569   3.59285   3.60139   3.61182
 Alpha virt. eigenvalues --    3.61719   3.63166   3.63723   3.65482   3.65940
 Alpha virt. eigenvalues --    3.66419   3.66926   3.69798   3.71052   3.72884
 Alpha virt. eigenvalues --    3.74511   3.76337   3.79245   4.10841   4.11676
 Alpha virt. eigenvalues --    4.12029   4.12261   4.13561   4.13760   4.13799
 Alpha virt. eigenvalues --    4.13848   4.13958   4.14087   4.14324   4.14459
 Alpha virt. eigenvalues --    4.14870   4.15155   4.15595   4.16190   4.17104
 Alpha virt. eigenvalues --    4.17496   4.18165   4.19168   4.20123   4.20919
 Alpha virt. eigenvalues --    4.21932   4.25786   4.26271   4.28827   4.30771
 Alpha virt. eigenvalues --    4.32459   4.34583   4.36700   4.39115   4.41147
 Alpha virt. eigenvalues --    4.43830   4.46611   4.49418   4.52015   4.55130
 Alpha virt. eigenvalues --    4.57689   4.60550   4.63329   4.65798   4.67862
 Alpha virt. eigenvalues --    4.70151   4.72122   4.73704   4.74820   4.75994
 Alpha virt. eigenvalues --    4.76647
          Condensed to atoms (all electrons):
 Mulliken charges:
               1
     1  C   -0.251243
     2  C   -0.033572
     3  C   -0.080861
     4  C   -0.072825
     5  C   -0.057316
     6  C   -0.105929
     7  C   -0.081202
     8  C   -0.078357
     9  C   -0.110507
    10  C   -0.052347
    11  C   -0.052834
    12  C   -0.110369
    13  C   -0.079463
    14  C   -0.080700
    15  C   -0.107057
    16  C   -0.056403
    17  C   -0.075933
    18  C   -0.083196
    19  C   -0.079389
    20  C   -0.080034
    21  C   -0.078672
    22  C   -0.080779
    23  C   -0.081575
    24  C   -0.077491
    25  C   -0.055835
    26  C   -0.105826
    27  C   -0.075564
    28  C   -0.086011
    29  C   -0.083110
    30  C   -0.078481
    31  C   -0.078547
    32  C   -0.083153
    33  C   -0.086075
    34  C   -0.075382
    35  C   -0.105789
    36  C   -0.055753
    37  C   -0.077671
    38  C   -0.081436
    39  C   -0.080916
    40  C   -0.078497
    41  C   -0.080558
    42  C   -0.079400
    43  C   -0.079542
    44  C   -0.080555
    45  C   -0.077065
    46  C   -0.077811
    47  C   -0.033660
    48  C   -0.252041
    49  H    0.095819
    50  H    0.084277
    51  H    0.081808
    52  H    0.081808
    53  H    0.081874
    54  H    0.080538
    55  H    0.079298
    56  H    0.079177
    57  H    0.080178
    58  H    0.082205
    59  H    0.082089
    60  H    0.080117
    61  H    0.078804
    62  H    0.079207
    63  H    0.080110
    64  H    0.081190
    65  H    0.080847
    66  H    0.080020
    67  H    0.080768
    68  H    0.080124
    69  H    0.080776
    70  H    0.080339
    71  H    0.080917
    72  H    0.080854
    73  H    0.082235
    74  H    0.080208
    75  H    0.080263
    76  H    0.079948
    77  H    0.081080
    78  H    0.080113
    79  H    0.080134
    80  H    0.081101
    81  H    0.079970
    82  H    0.080204
    83  H    0.080153
    84  H    0.082207
    85  H    0.080730
    86  H    0.080830
    87  H    0.080156
    88  H    0.080623
    89  H    0.079945
    90  H    0.080476
    91  H    0.080046
    92  H    0.080655
    93  H    0.080808
    94  H    0.081570
    95  H    0.083613
    96  H    0.095445
    97  H    0.095274
    98  H    0.095805
 Sum of Mulliken charges =  -0.00000
 Mulliken charges with hydrogens summed into heavy atoms:
               1
     1  C   -0.059620
     2  C    0.050705
     3  C    0.000947
     4  C    0.008983
     5  C    0.024558
     6  C   -0.025391
     7  C   -0.001903
     8  C    0.000819
     9  C   -0.030329
    10  C    0.029859
    11  C    0.029255
    12  C   -0.030253
    13  C   -0.000659
    14  C   -0.001493
    15  C   -0.026947
    16  C    0.024787
    17  C    0.004914
    18  C   -0.003177
    19  C    0.001379
    20  C    0.000090
    21  C    0.002103
    22  C   -0.000440
    23  C   -0.000658
    24  C    0.003363
    25  C    0.026400
    26  C   -0.025618
    27  C    0.004699
    28  C   -0.006063
    29  C   -0.002030
    30  C    0.001632
    31  C    0.001587
    32  C   -0.002052
    33  C   -0.006106
    34  C    0.004822
    35  C   -0.025637
    36  C    0.026454
    37  C    0.003058
    38  C   -0.000605
    39  C   -0.000759
    40  C    0.002127
    41  C   -0.000613
    42  C    0.001076
    43  C    0.000503
    44  C    0.000099
    45  C    0.003743
    46  C    0.003759
    47  C    0.049954
    48  C   -0.061323
 Electronic spatial extent (au):  <R**2>=         311324.0895
 Charge=             -0.0000 electrons
 Dipole moment (field-independent basis, Debye):
    X=             -0.1414    Y=              0.1414    Z=              0.2491  Tot=              0.3195
 Quadrupole moment (field-independent basis, Debye-Ang):
   XX=           -279.8202   YY=           -268.6402   ZZ=           -293.2408
   XY=              0.8017   XZ=              0.7898   YZ=             22.6662
 Traceless Quadrupole moment (field-independent basis, Debye-Ang):
[...]
 .00000112,0.00000943,-0.00000484,-0.00000018,-0.00000596,0.00000293,-0
 .00000685,-0.00000742,0.00000522,0.00000561,0.00000460,-0.00000381,-0.
 00000052,0.00001068,-0.00000704,0.00000152,-0.00000839,0.00000518,-0.0
 0000983,-0.00000678,0.00000863,0.00000907,0.00000460,-0.00000734,-0.00
 000311,0.00001248,-0.00001117,0.00000478,-0.00001074,0.00000871,-0.000
 01154,-0.00000485,0.00000675,0.00001031,0.00000154,-0.00000622,-0.0000
 0963,0.00000090,0.00001738,0.00001165,0.00000135,-0.00001135,-0.000027
 53,-0.00004516,-0.00001217,0.00002314,0.00001126,-0.00001286,0.0000466
 5,0.00012440,0.00018457,0.00008224,-0.00002775,-0.00008744,-0.00030153
 ,-0.00098153,-0.00038969,0.00108024,0.00018862,-0.00043666,0.00194567,
 0.00360940,0.00814817,0.02232885,-0.00234982,-0.00254465,0.08444318,-0
 .06897720,0.00517410,-0.00000009,0.00000003,0.00000009,0.00000002,-0.0
 0000039,0.00000027,0.,-0.00000005,0.00000009,0.00000009,-0.00000045,0.
 00000027,-0.00000004,-0.00000012,0.00000013,0.00000031,-0.00000057,0.0
 0000031,-0.00000025,0.00000018,0.00000003,0.00000059,0.00000007,-0.000
 00013,-0.00000026,0.00000004,0.00000006,0.00000015,-0.00000048,0.00000
 022,-0.00000007,-0.00000012,0.00000008,0.00000036,-0.00000069,0.000000
 32,-0.00000022,0.00000029,-0.00000007,0.00000082,0.00000017,-0.0000002
 3,-0.00000032,0.,0.00000008,0.00000022,-0.00000063,0.00000027,-0.00000
 005,-0.00000023,0.00000012,0.00000020,-0.00000084,0.00000038,0.,-0.000
 00032,0.00000016,0.00000021,-0.00000101,0.00000047,0.,-0.00000040,0.00
 000020,0.00000024,-0.00000114,0.00000055,0.,-0.00000050,0.00000023,0.0
 0000028,-0.00000129,0.00000069,-0.00000002,-0.00000050,0.00000045,0.00
 000075,-0.00000167,0.00000081,-0.00000045,0.00000042,-0.00000033,0.000
 00174,0.00000039,-0.00000059,-0.00000053,0.,0.00000060,0.00000118,-0.0
 0000162,0.00000098,-0.00000043,0.00000056,-0.00000038,0.00000227,0.000
 00037,-0.00000084,-0.00000076,0.00000001,0.00000073,0.00000167,-0.0000
 0198,0.00000146,-0.00000048,0.00000084,-0.00000051,0.00000250,0.000000
 84,-0.00000143,0.00000100,0.00000147,-0.00000039,0.00000333,0.00000132
 ,-0.00000238,0.00000055,-0.00000029,-0.00000247,0.00000467,0.00000231,
 -0.00000271,0.00000544,0.00001273,0.00000859,0.00000573,0.00000290,-0.
 00000508,-0.00001621,-0.00003774,-0.00003358,0.00000923,0.00002207,-0.
 00000092,-0.00002395,0.00007803,0.00008576,0.00010916,-0.00010555,-0.0
 0024969,-0.00165241,-0.00301390,-0.00367578,-0.01206544,0.00593001,0.0
 0127206,-0.09601537,0.06555768,-0.00000118,0.00000052,-0.00000021,0.00
 000067,-0.00000149,0.00000056,-0.00000048,0.00000128,-0.00000060,0.000
 00026,-0.00000158,0.00000067,-0.00000020,0.00000117,-0.00000058,0.0000
 0030,-0.00000193,0.00000081,-0.00000038,0.00000124,-0.00000062,0.00000
 154,0.00000113,-0.00000094,-0.00000133,-0.00000053,0.00000051,0.000000
 40,-0.00000172,0.00000081,-0.00000038,0.00000128,-0.00000059,0.0000003
 3,-0.00000249,0.00000117,-0.00000043,0.00000184,-0.00000089,0.00000209
 ,0.00000154,-0.00000127,-0.00000188,-0.00000090,0.00000082,0.00000049,
 -0.00000221,0.00000109,-0.00000052,0.00000180,-0.00000085,0.00000036,-
 0.00000258,0.00000130,-0.00000035,0.00000203,-0.00000100,0.00000017,-0
 .00000295,0.00000155,-0.00000017,0.00000227,-0.00000118,-0.00000007,-0
 .00000334,0.00000175,0.00000009,0.00000255,-0.00000137,-0.00000028,-0.
 00000363,0.00000218,0.00000046,0.00000258,-0.00000159,-0.00000102,-0.0
 0000607,0.00000304,0.00000031,0.00000338,-0.00000178,0.00000395,0.0000
 0524,-0.00000363,-0.00000287,-0.00000274,0.00000182,-0.00000069,-0.000
 00702,0.00000465,-0.00000034,0.00000436,-0.00000287,0.00000518,0.00000
 537,-0.00000635,-0.00000409,-0.00000289,0.00000334,-0.00000037,-0.0000
 0776,0.00000831,-0.00000133,0.00000427,-0.00000439,0.00000364,0.000003
 53,-0.00000880,-0.00000364,-0.00000474,0.00000731,0.00000537,0.0000146
 0,-0.00000588,-0.00000396,-0.00001127,0.00000996,-0.00001148,-0.000014
 02,-0.00004574,-0.00000459,-0.00001349,0.00002605,0.00004919,0.0001839
 2,0.00007757,-0.00007500,-0.00006766,0.00003643,-0.00030481,-0.0004108
 1,-0.00084744,-0.00092142,-0.00001148,0.00064821,0.00198292,0.00755128
 ,0.00221347,-0.02018705,0.00676864,0.00550929,0.03134091,0.00389726,-0
 .04944566,0.00000005,0.,0.00000007,0.,0.00000027,-0.00000006,0.0000000
 1,0.00000007,0.00000003,-0.00000004,0.00000031,-0.00000009,0.00000003,
 0.00000009,0.,-0.00000016,0.00000038,-0.00000008,0.00000011,-0.0000001
 0,0.00000010,-0.00000042,-0.00000008,0.00000017,0.00000017,-0.00000003
 ,0.00000001,-0.00000011,0.00000032,-0.00000013,0.00000004,0.00000011,-
 0.00000006,-0.00000022,0.00000045,-0.00000015,0.00000013,-0.00000015,0
 .00000009,-0.00000053,-0.00000009,0.00000019,0.00000021,0.00000001,-0.
 00000003,-0.00000015,0.00000042,-0.00000020,0.00000002,0.00000016,-0.0
 0000009,-0.00000013,0.00000055,-0.00000028,0.,0.00000022,-0.00000011,-
 0.00000013,0.00000063,-0.00000032,-0.00000001,0.00000025,-0.00000013,-
 0.00000015,0.00000076,-0.00000037,0.,0.00000030,-0.00000012,-0.0000001
 6,0.00000087,-0.00000043,0.00000001,0.00000031,-0.00000022,-0.00000048
 ,0.00000104,-0.00000041,0.00000026,-0.00000029,0.00000039,-0.00000119,
 -0.00000016,0.00000048,0.00000043,0.00000002,-0.00000020,-0.00000076,0
 .00000107,-0.00000044,0.00000033,-0.00000028,0.00000046,-0.00000157,-0
 .00000006,0.00000073,0.00000071,0.00000017,-0.00000010,-0.00000116,0.0
 0000148,-0.00000068,0.00000043,-0.00000050,0.00000049,-0.00000165,-0.0
 0000019,0.00000127,-0.00000016,0.00000010,0.00000118,-0.00000229,-0.00
 000039,0.00000205,-0.00000097,-0.00000163,0.00000004,-0.00000320,-0.00
 000006,0.00000321,0.00000363,0.00000933,0.00001040,-0.00000505,-0.0000
 0136,0.00000441,-0.00001206,-0.00003379,-0.00003045,-0.00000350,0.0000
 0576,0.00001994,0.00008934,0.00004105,0.00005874,-0.00039805,-0.000107
 98,0.00001415,-0.00140128,-0.00376823,-0.00205635,0.01925392,-0.006607
 84,0.00121506,-0.02938237,-0.00742111,0.04257933,-0.26986758,0.1250479
 7,-0.01395503,-0.01846943,0.01581059,-0.00334715,-0.00120642,-0.002707
 09,0.00406409,-0.00074178,0.00103741,-0.00032683,-0.00019484,-0.000413
 09,-0.00004358,-0.00014866,0.00004847,-0.00000222,0.00005101,0.0000200
 1,0.00003196,-0.00001180,0.00005049,-0.00002610,0.00000885,-0.00005035
 ,0.00001791,-0.00001501,0.00001533,-0.00000433,0.00001032,-0.00002285,
 0.00000899,-0.00002336,-0.00001281,0.00001164,0.00002317,0.00001872,-0
 .00001488,-0.00000216,0.00002062,-0.00001047,0.00000011,-0.00002663,0.
 00001398,-0.00000206,0.00000993,-0.00000471,0.00000177,-0.00001512,0.0
 0000749,-0.00000223,0.00000954,-0.00000449,0.00000184,-0.00001310,0.00
 000652,-0.00000260,0.00000822,-0.00000370,0.00000215,-0.00001130,0.000
 00551,-0.00000290,0.00000707,-0.00000307,0.00000261,-0.00000954,0.0000
 0458,-0.00000335,0.00000628,-0.00000242,0.00000334,-0.00000809,0.00000
 360,-0.00000849,-0.00000437,0.00000445,0.00000909,0.00000584,-0.000005
 55,-0.00000182,0.00000803,-0.00000496,0.00000138,-0.00000902,0.0000060
 3,-0.00000518,-0.00000296,0.00000457,0.00000614,0.00000466,-0.00000650
 ,-0.00000088,0.00000443,-0.00000444,0.00000018,-0.00000614,0.00000677,
 -0.00000254,-0.00000202,0.00000377,0.00000421,0.00000403,-0.00000703,-
 0.00000181,-0.00000228,0.00000329,0.00000303,0.00000320,-0.00000455,-0
 .00000230,-0.00000200,0.00000340,0.00000328,0.00000239,-0.00000419,-0.
 00000279,-0.00000147,0.00000300,0.00000349,0.00000195,-0.00000365,-0.0
 0000284,-0.00000117,0.00000265,0.00000336,0.00000167,-0.00000340,-0.00
 000284,-0.00000108,0.00000248,0.00000341,0.00000146,-0.00000316,-0.000
 00319,-0.00000082,0.00000236,0.00000367,0.00000098,-0.00000276,-0.0000
 0342,0.00000086,0.00000033,0.00351085,-0.00254056,0.00105001,0.0007442
 5,-0.00076298,-0.00121580,0.00015731,0.00004162,-0.00011453,0.00000735
 ,-0.00005094,0.00005371,0.00001611,0.00001209,-0.00000615,0.00000192,-
 0.00000883,-0.00001287,-0.00002559,0.00000138,0.00000348,0.00000361,-0
 .00000549,0.00000866,-0.00000473,0.00000825,-0.00000309,0.00000150,0.0
 0000347,-0.00000057,-0.00000189,0.00000523,-0.00000218,0.00000184,0.00
 000092,-0.00000086,-0.00000532,-0.00000117,0.00000184,0.00000077,-0.00
 000191,0.00000084,-0.00000208,0.00000457,-0.00000192,0.00000008,0.0000
 0172,-0.00000090,-0.00000074,0.00000376,-0.00000181,-0.00000002,0.0000
 0148,-0.00000081,-0.00000063,0.00000320,-0.00000157,0.00000002,0.00000
 126,-0.00000071,-0.00000052,0.00000272,-0.00000137,0.00000002,0.000001
 09,-0.00000063,-0.00000052,0.00000229,-0.00000112,0.00000009,0.0000008
 2,-0.00000059,-0.00000062,0.00000164,-0.00000084,0.00000071,0.00000005
 ,-0.00000022,-0.00000212,-0.00000050,0.00000084,0.00000033,-0.00000067
 ,0.00000028,-0.00000095,0.00000135,-0.00000071,0.00000067,0.00000002,-
 0.00000006,-0.00000171,-0.00000031,0.00000077,0.00000026,-0.00000060,0
 .00000015,-0.00000081,0.00000108,-0.00000072,0.00000066,0.,0.00000002,
 -0.00000153,-0.00000034,0.00000103,-0.00000028,-0.00000036,0.00000031,
 -0.00000096,-0.00000047,0.00000088,-0.00000024,-0.00000022,0.00000033,
 -0.00000083,-0.00000042,0.00000078,-0.00000019,-0.00000020,0.00000022,
 -0.00000071,-0.00000041,0.00000069,-0.00000011,-0.00000014,0.00000016,
 -0.00000065,-0.00000035,0.00000067,-0.00000008,-0.00000007,0.00000013,
 -0.00000061,-0.00000033,0.00000064,-0.00000005,-0.00000004,0.00000008,
 -0.00000039,-0.00000028,0.00000053,0.00000011,-0.00000006,0.00000011,-
 0.00000011,0.00000032,-0.00000022,0.28619242,0.12899364,-0.12570175,0.
 02141090,-0.01302849,0.00965395,-0.00007024,-0.00086690,0.00127215,0.0
 0544907,-0.00027076,0.00073241,-0.00019913,-0.00035840,-0.00040781,-0.
 00043844,0.00003833,0.00004274,-0.00005087,-0.00001432,0.00008429,0.00
 008911,0.00001042,-0.00003560,0.00001016,-0.00002798,-0.00001023,-0.00
 000426,0.00001752,0.00000752,-0.00000674,-0.00001447,-0.00000441,0.000
 00381,0.00000929,0.00000163,-0.00000295,-0.00000426,0.00000766,-0.0000
 0348,0.00000285,-0.00000516,0.00000178,-0.00000548,-0.00000178,0.00000
 213,0.00000406,0.00000188,-0.00000192,-0.00000367,-0.00000139,0.000001
 38,0.00000270,0.00000129,-0.00000132,-0.00000237,-0.00000099,0.0000010
 0,0.00000185,0.00000094,-0.00000092,-0.00000156,-0.00000070,0.00000068
 ,0.00000119,0.00000067,-0.00000062,-0.00000100,-0.00000050,0.00000048,
 0.00000063,0.00000051,-0.00000042,-0.00000062,-0.00000043,0.00000037,0
 .00000019,0.00000001,-0.00000008,0.00000001,0.00000045,-0.00000031,0.0
 0000016,-0.00000026,0.00000005,-0.00000028,-0.00000030,0.00000028,0.00
 000003,-0.00000007,0.00000005,0.00000008,0.00000018,-0.00000021,0.0000
 0006,-0.00000008,-0.00000001,-0.00000018,-0.00000022,0.00000029,-0.000
 00003,-0.00000009,0.00000010,0.00000007,0.00000012,-0.00000021,-0.0000
 0001,-0.00000017,0.00000023,0.00000008,0.00000004,-0.00000005,-0.00000
 022,0.00000008,0.00000006,0.00000021,-0.00000006,0.,-0.00000019,0.0000
 0012,0.00000003,0.00000018,-0.00000003,0.,0.00000002,0.,0.00000004,-0.
 00000006,0.,-0.00000003,0.00000005,-0.00000005,0.00000001,-0.00000010,
 0.00000001,-0.00000001,0.00000013,-0.00000007,0.00000002,0.,-0.0000001
 0,0.00000005,-0.00000001,-0.00000002,-0.00000020,0.02186802,-0.0084232
 8,0.00091090,-0.00047529,-0.00037728,-0.00324867,-0.00039711,0.0002483
 7,-0.00019119,0.00008716,0.00002120,0.00004212,-0.00000576,0.00001083,
 0.00000401,-0.00000518,-0.00001854,-0.00003107,-0.00000717,0.00000233,
 -0.00000263,0.00000511,0.00000776,0.00001100,-0.00000256,0.00000237,-0
 .00000025,0.00000106,0.00000181,0.00000268,-0.00000066,0.00000097,0.,0
 .00000042,-0.00000011,0.00000002,-0.00000057,0.00000025,0.00000023,0.0
 0000052,0.00000008,-0.00000007,-0.00000044,0.00000060,-0.00000007,0.00
 000008,0.00000006,0.00000007,-0.00000011,0.00000028,-0.00000004,0.0000
 0002,0.00000003,0.00000004,-0.00000008,0.00000016,-0.00000002,0.,-0.00
 000001,0.00000004,-0.00000007,0.00000012,-0.00000004,0.,-0.00000003,0.
 00000003,-0.00000005,0.00000009,-0.00000005,0.00000001,-0.00000003,0.0
 0000003,-0.00000003,0.00000005,-0.00000002,0.00000005,0.00000008,-0.00
 000003,-0.00000004,0.00000009,0.,0.00000006,0.,0.00000003,-0.00000007,
 0.00000013,-0.00000005,0.00000003,0.00000009,-0.00000005,-0.00000004,0
 .00000005,-0.00000001,0.00000005,0.,0.,-0.00000005,0.00000011,-0.00000
 007,0.,0.00000012,-0.00000009,0.00000001,0.00000005,-0.00000004,0.,0.,
 -0.00000002,-0.00000002,-0.00000002,0.,0.,-0.00000002,-0.00000003,0.,-
 0.00000001,-0.00000003,-0.00000003,-0.00000004,-0.00000003,0.,-0.00000
 003,-0.00000004,0.,0.,-0.00000002,0.,0.00000001,0.,0.00000001,0.000000
 03,0.,0.00000001,0.00000003,0.,0.,0.00000003,0.00000001,-0.00000003,0.
 00000004,0.00000004,0.,0.00000006,0.00000004,-0.00000011,0.00000008,0.
 00000005,-0.13554957,0.12288463,-0.01597526,0.02223890,-0.03911285,0.0
 1142497,-0.00612096,0.00491848,0.00312039,0.00583499,0.00791141,0.0003
 4425,-0.00047328,0.00040307,-0.00007181,-0.00042690,-0.00117684,0.0000
 0304,-0.00005278,-0.00001444,0.00004952,0.00008183,0.00020056,-0.00000
 529,0.00000178,-0.00001138,0.00000629,0.00000015,-0.00003184,-0.000005
 53,-0.00000637,0.00000610,0.00000464,0.00000556,-0.00000687,0.00000006
 ,0.00000166,-0.00000118,-0.00000280,-0.00000826,0.00000418,-0.00000117
 ,-0.00000198,0.00000067,0.00000285,0.00000644,-0.00000399,-0.00000175,
 -0.00000314,0.00000183,0.00000148,0.00000371,-0.00000255,-0.00000096,-
 0.00000280,0.00000148,0.00000083,0.00000322,-0.00000198,-0.00000040,-0
 .00000230,0.00000116,0.00000029,0.00000269,-0.00000157,0.00000004,-0.0
 0000189,0.00000092,-0.00000010,0.00000222,-0.00000122,0.00000042,-0.00
 000164,0.00000067,-0.00000042,0.00000191,-0.00000095,0.00000169,0.0000
 0081,-0.00000096,-0.00000191,-0.00000148,0.00000126,0.00000029,-0.0000
 0157,0.00000095,-0.00000014,0.00000200,-0.00000147,0.00000102,0.000000
 57,-0.00000098,-0.00000130,-0.00000112,0.00000144,0.00000012,-0.000000
 90,0.00000087,0.00000003,0.00000133,-0.00000156,0.00000046,0.00000043,
 -0.00000084,-0.00000083,-0.00000098,0.00000153,0.00000034,0.00000061,-
 0.00000079,-0.00000059,-0.00000075,0.00000100,0.00000050,0.00000049,-0
 .00000076,-0.00000070,-0.00000050,0.00000091,0.00000066,0.00000033,-0.
 00000061,-0.00000078,-0.00000034,0.00000077,0.00000063,0.00000022,-0.0
 0000051,-0.00000073,-0.00000034,0.00000065,0.00000060,0.00000019,-0.00
 000051,-0.00000070,-0.00000031,0.00000061,0.00000061,0.00000019,-0.000
 00050,-0.00000077,-0.00000020,0.00000051,0.00000064,-0.00000031,-0.000
 00018,-0.01145288,0.00603182,0.00162461,-0.00136313,-0.00318828,-0.004
 99526,0.00011001,-0.00028336,-0.00016550,-0.00001711,0.00007113,0.0001
 0623,0.00000307,0.00000013,0.00001554,-0.00001483,-0.00003037,-0.00006
 263,0.00000749,-0.00000439,-0.00000518,0.00000326,0.00001335,0.0000238
 3,0.00000247,-0.00000246,0.00000165,0.00000075,0.00000224,0.00000619,0
 .00000088,-0.00000120,0.00000118,-0.00000059,-0.00000006,0.00000028,0.
 00000151,0.00000036,-0.00000005,-0.00000038,0.00000045,0.,0.00000073,-
 0.00000106,0.00000072,0.,-0.00000024,0.00000040,0.00000025,-0.00000081
 ,0.00000058,0.00000002,-0.00000021,0.00000028,0.00000020,-0.00000068,0
 .00000045,0.00000002,-0.00000020,0.00000022,0.00000015,-0.00000059,0.0
 0000036,0.,-0.00000015,0.00000016,0.00000013,-0.00000050,0.00000028,-0
 .00000001,-0.00000009,0.00000014,0.00000015,-0.00000035,0.00000022,-0.
 00000017,0.00000002,0.00000011,0.00000049,0.00000011,-0.00000012,-0.00
 000008,0.00000019,-0.00000001,0.00000024,-0.00000029,0.00000021,-0.000
 00015,0.,0.00000007,0.00000040,0.00000008,-0.00000013,-0.00000006,0.00
 000016,0.,0.00000021,-0.00000023,0.00000021,-0.00000016,0.00000001,0.0
 0000006,0.00000035,0.00000006,-0.00000018,0.00000004,0.00000007,-0.000
 00005,0.00000021,0.00000009,-0.00000018,0.00000004,0.00000003,-0.00000
 008,0.00000016,0.00000007,-0.00000017,0.00000003,0.00000002,-0.0000000
 8,0.00000013,0.00000006,-0.00000017,0.00000002,0.00000002,-0.00000004,
 0.00000014,0.00000009,-0.00000013,0.00000002,0.00000003,0.00000001,0.0
 0000012,0.00000007,-0.00000010,0.00000003,0.00000002,0.00000001,0.0000
 0011,0.00000007,-0.00000006,0.,0.00000005,0.00000005,0.00000011,-0.000
 00003,0.00000009,0.01382291,-0.02368637,0.03036224\\-0.00000104,-0.000
 00126,0.00000098,0.,0.00000105,-0.00000048,0.00000261,-0.00000125,0.00
 000011,-0.00000312,0.00000196,-0.00000030,0.00000458,-0.00000129,-0.00
 000050,-0.00000372,-0.00000003,0.00000073,0.00000353,-0.00000226,0.000
 00016,-0.00000251,0.00000210,-0.00000071,0.00000072,-0.00000073,0.,-0.
 00000145,0.00000158,-0.00000130,0.00000045,-0.00000200,0.00000076,0.00
 000075,0.00000020,-0.00000030,0.00000031,0.00000034,-0.00000112,-0.000
 00025,-0.00000108,0.00000006,-0.00000228,-0.00000059,0.00000033,0.0000
 0101,0.00000168,-0.00000162,-0.00000236,-0.00000276,0.00000074,0.00000
 237,0.00000163,-0.00000209,-0.00000228,-0.00000213,0.00000068,0.000002
 23,0.00000138,-0.00000215,-0.00000224,-0.00000205,0.00000065,0.0000023
 0,0.00000127,-0.00000217,-0.00000260,-0.00000211,0.00000065,0.00000256
 ,0.00000164,-0.00000190,-0.00000266,-0.00000241,0.00000028,0.00000249,
 0.00000036,-0.00000067,-0.00000108,0.00000100,-0.00000222,0.00000278,-
 0.00000260,-0.00000028,-0.00000418,0.00000067,-0.00000015,0.00000080,-
 0.00000083,-0.00000123,-0.00000062,0.00000053,-0.00000015,0.00000301,-
 0.00000192,-0.00000014,-0.00000296,0.00000030,0.00000038,0.00000077,0.
 00000094,-0.00000081,-0.00000051,-0.00000017,-0.00000124,-0.00000099,-
 0.00000068,0.00000175,0.00000125,0.00000013,-0.00000132,-0.00000174,0.
 ,0.00000095,0.00000240,-0.00000075,-0.00000010,-0.00000294,0.00000127,
 0.00000011,0.00000355,-0.00000171,0.00000063,-0.00000385,0.00000225,-0
 .00000048,0.00000418,-0.00000215,0.00000091,-0.00000404,0.00000238,-0.
 00000049,0.00000386,-0.00000148,0.00000030,-0.00000325,0.00000171,-0.0
 0000007,0.00000117,0.00000028,-0.00000049,-0.00000017,-0.00000097,0.00
 000162,0.00000077,0.00000041,-0.00000018,0.00000056,-0.00000060,0.0000
 0025,-0.00000090,0.00000098,-0.00000012,0.00000073,-0.00000103,0.00000
 048,-0.00000142,0.00000097,-0.00000012,0.00000042,-0.00000037,0.000000
 29,-0.00000091,0.00000040,0.00000021,0.00000078,-0.00000001,0.00000030
 ,0.00000005,0.00000069,0.00000006,0.00000081,-0.00000088,0.00000061,-0
 .00000068,0.00000156,0.00000069,-0.00000011,-0.00000026,0.00000047,-0.
 00000046,-0.00000012,-0.00000028,0.00000057,-0.00000019,-0.00000004,0.
 00000039,0.00000054,0.00000033,0.00000120,-0.00000009,0.00000158,0.000
 00002,0.00000122,0.00000027,0.00000045,-0.00000061,0.00000093,-0.00000
 022,0.00000116,0.00000035,0.00000047,-0.00000065,0.00000096,-0.0000002
 6,0.00000125,0.00000031,0.00000047,-0.00000071,0.00000101,-0.00000026,
 0.00000138,0.00000022,0.00000029,-0.00000081,0.00000107,-0.00000057,0.
 00000101,-0.00000070,-0.00000022,-0.00000032,0.00000084,-0.00000049,0.
 00000001,0.00000018,0.00000067,0.00000099,0.00000110,-0.00000010,0.000
 00149,0.00000139,0.00000027,0.00000005,0.00000063,-0.00000039,0.000000
 02,0.00000011,0.00000030,-0.00000078,-0.00000084,-0.00000028,-0.000000
 13,-0.00000062,0.00000042,0.00000014,0.00000046,-0.00000018,-0.0000005
 2,0.00000027,0.00000137,0.00000077,-0.00000002,-0.00000089,-0.00000031
 ,0.00000049,0.00000107,-0.00000002,-0.00000060,-0.00000111,-0.00000009
 ,0.00000032,0.00000119,-0.00000015,-0.00000047,-0.00000128,0.00000007,
 0.00000028,0.00000131,-0.00000024,-0.00000035,-0.00000139,0.00000021,0
 .00000027,0.00000133,-0.00000021,-0.00000028,-0.00000139,0.00000021,0.
 00000042,0.00000132,-0.00000014,-0.00000015,-0.00000085,0.00000021,0.0
 0000033,-0.00000027,0.00000081,-0.00000033,0.00000006,0.00000068,-0.00
 000040,0.00000044,0.00000060,-0.00000028\\\@


 THEREFORE SHALL EVIL COME UPON THEE...
 THOU SHALT NOT KNOW FROM WHENCE IT RISETH...
 AND MISCHIEF SHALL FALL UPON THEE...
 THOU SHALT NOT BE ABLE TO PUT IT OFF...
 AND DESOLATION SHALL COME UPON THEE SUDDENLY...
 WHICH THOU SHALT NOT KNOW...

                                         ISAIAH 47.11
 Job cpu time:       0 days  5 hours 27 minutes 26.0 seconds.
 Elapsed time:       0 days  5 hours 27 minutes 28.2 seconds.
 File lengths (MBytes):  RWF=   8340 Int=      0 D2E=      0 Chk=     79 Scr=      1
 Normal termination of Gaussian 16 at Sat Oct 28 22:41:21 2023.
