 Entering Gaussian System, Link 0=g16
 Input=./com/25.com
 Output=./log/25.log
 Initial command:
 /home/shohei/gaussian/g16/l1.exe "/home/shohei/gaussian/scratch/Gau-26527.inp" -scrdir="/home/shohei/gaussian/scratch/"
 Entering Link 1 = /home/shohei/gaussian/g16/l1.exe PID=     26529.
  
 Copyright (c) 1988-2017, Gaussian, Inc.  All Rights Reserved.
  
 This is part of the Gaussian(R) 16 program.  It is based on
 the Gaussian(R) 09 system (copyright 2009, Gaussian, Inc.),
 the Gaussian(R) 03 system (copyright 2003, Gaussian, Inc.),
 the Gaussian(R) 98 system (copyright 1998, Gaussian, Inc.),
 the Gaussian(R) 94 system (copyright 1995, Gaussian, Inc.),
 the Gaussian 92(TM) system (copyright 1992, Gaussian, Inc.),
 the Gaussian 90(TM) system (copyright 1990, Gaussian, Inc.),
 the Gaussian 88(TM) system (copyright 1988, Gaussian, Inc.),
 the Gaussian 86(TM) system (copyright 1986, Carnegie Mellon
 University), and the Gaussian 82(TM) system (copyright 1983,
 Carnegie Mellon University). Gaussian is a federally registered
 trademark of Gaussian, Inc.
  
 This software contains proprietary and confidential information,
 including trade secrets, belonging to Gaussian, Inc.
  
 This software is provided under written license and may be
 used, copied, transmitted, or stored only in accord with that
 written license.
  
 The following legend is applicable only to US Government
 contracts under FAR:
  
                    RESTRICTED RIGHTS LEGEND
  
 Use, reproduction and disclosure by the US Government is
 subject to restrictions as set forth in subparagraphs (a)
 and (c) of the Commercial Computer Software - Restricted
 Rights clause in FAR 52.227-19.
  
 Gaussian, Inc.
 340 Quinnipiac St., Bldg. 40, Wallingford CT 06492
  
  
 ---------------------------------------------------------------
 Warning -- This program may not be used in any manner that
 competes with the business of Gaussian, Inc. or will provide
 assistance to any competitor of Gaussian, Inc.  The licensee
 of this program is prohibited from giving any competitor of
 Gaussian, Inc. access to this program.  By using this program,
 the user acknowledges that Gaussian, Inc. is engaged in the
 business of creating and licensing software in the field of
 computational chemistry and represents and warrants to the
 licensee that it is not a competitor of Gaussian, Inc. and that
 it will not use this program in any manner prohibited above.
 ---------------------------------------------------------------
  

 Cite this work as:
 Gaussian 16, Revision B.01,
 M. J. Frisch, G. W. Trucks, H. B. Schlegel, G. E. Scuseria, 
 M. A. Robb, J. R. Cheeseman, G. Scalmani, V. Barone, 
 G. A. Petersson, H. Nakatsuji, X. Li, M. Caricato, A. V. Marenich, 
 J. Bloino, B. G. Janesko, R. Gomperts, B. Mennucci, H. P. Hratchian, 
 J. V. Ortiz, A. F. Izmaylov, J. L. Sonnenberg, D. Williams-Young, 
 F. Ding, F. Lipparini, F. Egidi, J. Goings, B. Peng, A. Petrone, 
 T. Henderson, D. Ranasinghe, V. G. Zakrzewski, J. Gao, N. Rega, 
 G. Zheng, W. Liang, M. Hada, M. Ehara, K. Toyota, R. Fukuda, 
 J. Hasegawa, M. Ishida, T. Nakajima, Y. Honda, O. Kitao, H. Nakai, 
 T. Vreven, K. Throssell, J. A. Montgomery, Jr., J. E. Peralta, 
 F. Ogliaro, M. J. Bearpark, J. J. Heyd, E. N. Brothers, K. N. Kudin, 
 V. N. Staroverov, T. A. Keith, R. Kobayashi, J. Normand, 
 K. Raghavachari, A. P. Rendell, J. C. Burant, S. S. Iyengar, 
 J. Tomasi, M. Cossi, J. M. Millam, M. Klene, C. Adamo, R. Cammi, 
 J. W. Ochterski, R. L. Martin, K. Morokuma, O. Farkas, 
 J. B. Foresman, and D. J. Fox, Gaussian, Inc., Wallingford CT, 2016.
 
 ******************************************
 Gaussian 16:  EM64L-G16RevB.01 20-Dec-2017
                28-Oct-2023 
 ******************************************
 %chk=./chk/25.chk
 ---------------------------
 # B3LYP/6-31G(d,p) OPT FREQ
 ---------------------------
 1/18=20,19=15,26=3,38=1/1,3;
 2/9=110,12=2,17=6,18=5,40=1/2;
 3/5=1,6=6,7=101,11=2,25=1,30=1,71=1,74=-5/1,2,3;
 4//1;
 5/5=2,38=5/2;
 6/7=2,8=2,9=2,10=2,28=1/1;
 7//1,2,3,16;
 1/18=20,19=15,26=3/3(2);
 2/9=110/2;
 99//99;
 2/9=110/2;
 3/5=1,6=6,7=101,11=2,25=1,30=1,71=1,74=-5/1,2,3;
 4/5=5,16=3,69=1/1;
 5/5=2,38=5/2;
 7//1,2,3,16;
 1/18=20,19=15,26=3/3(-5);
 2/9=110/2;
 6/7=2,8=2,9=2,10=2,19=2,28=1/1;
 99/9=1/99;
 ------
 25poly
 ------
 Symbolic Z-matrix:
 Charge =  0 Multiplicity = 1
 C                    -27.58883   3.92421  -0.24903 
 C                    -26.47756   4.48338  -0.73353 
 C                    -25.14291   4.06241  -0.26067 
 C                    -24.02947   4.62387  -0.75015 
 C                    -22.69541   4.2      -0.27672 
 C                    -21.57921   4.755    -0.7681 
 C                    -20.24603   4.3249   -0.29462 
 C                    -19.12753   4.87582  -0.79918 
 C                    -17.73932   4.51381  -0.40269 
 C                    -17.42212   3.59297   0.53155 
 C                    -16.03659   3.21895   0.9223 
 C                    -14.91256   3.73419   0.39305 
 C                    -13.58541   3.26573   0.85031 
 C                    -12.45791   3.75134   0.30086 
 C                    -11.07734   3.32985   0.66323 
 C                    -10.77343   2.42665   1.61946 
 C                    -9.39592   1.9772    1.95789 
 C                    -8.27367   2.38664   1.34098 
 C                    -6.95738   1.83427   1.7277 
 C                    -5.84554   2.1891    1.07056 
 C                    -4.53459   1.59701   1.41014 
 C                    -3.4459    1.89839   0.69104 
 C                    -2.13974   1.26611   0.97157 
 C                    -1.08699   1.51156   0.18121 
 C                     0.21304   0.84116   0.39378 
 C                     1.2171    1.03376  -0.47147 
 C                     2.51091   0.33093  -0.33342 
 C                     3.45417   0.48534  -1.27839 
 C                     4.77336  -0.19553  -1.30739 
 C                     5.24494  -1.02765  -0.35437 
 C                     6.55864  -1.73223  -0.42347 
 C                     7.38968  -1.69024  -1.48647 
 C                     8.68989  -2.40019  -1.59811 
 C                     9.26787  -3.14227  -0.62968 
 C                     10.5754  -3.84671  -0.77652 
 C                     11.28985  -3.89871  -1.92097 
 C                     12.59515  -4.58562  -2.09003 
 C                     13.28946  -5.20638  -1.12087 
 C                     14.59343  -5.82659  -1.44086 
 C                     15.35575  -6.39969  -0.50033 
 C                     16.6659  -6.98077  -0.86247 
 C                     17.48321  -7.50396   0.06046 
 C                     18.79917  -8.04988  -0.33378 
 C                     19.65897  -8.52772   0.575 
 C                     20.97914  -9.04593   0.1582 
 C                     21.86771  -9.48883   1.05702 
 C                     23.19043  -9.98894   0.62667 
 C                     24.09498  -10.41031   1.51994 
 C                     25.41822  -10.90156   1.08314 
 C                     26.32863  -11.31376   1.96808 
 H                    -27.5427   3.14468   0.50584 
 H                    -26.56514   5.26025  -1.48834 
 H                    -25.06854   3.28412   0.49559 
 H                    -24.10376   5.40143  -1.50705 
 H                    -22.62368   3.42319   0.48127 
 H                    -21.65103   5.5303   -1.52756 
 H                    -20.2011   3.55319   0.46365 
 H                    -19.22364   5.64403  -1.56203 
 H                    -16.95886   5.04883  -0.92723 
 H                    -18.20173   3.05923   1.05793 
 H                    -15.94787   2.45862   1.6939 
 H                    -14.95061   4.48917  -0.38269 
 H                    -13.55171   2.51176   1.62683 
 H                    -12.54046   4.49928  -0.48342 
 H                    -10.29133   3.79892   0.08673 
 H                    -11.55897   1.96036   2.19855 
 H                    -9.31371   1.24284   2.75491 
 H                    -8.30671   3.10631   0.53229 
 H                    -6.89852   1.10906   2.53614 
 H                    -5.90873   2.90152   0.25088 
 H                    -4.46383   0.88517   2.22932 
 H                    -3.52766   2.59592  -0.13985 
 H                    -2.04595   0.57051   1.80223 
 H                    -1.19674   2.19247  -0.66028 
 H                     0.33953   0.16286   1.23424 
 H                     1.06898   1.69882  -1.31981 
 H                     2.66198  -0.32548   0.51563 
 H                     3.24364   1.13989  -2.12053 
 H                     5.36079   0.01949  -2.18838 
 H                     4.65508  -1.22464   0.53193 
 H                     6.81806  -2.32419   0.44497 
 H                     7.12431  -1.11974  -2.36499 
 H                     9.17688  -2.27543  -2.5546 
 H                     8.78544  -3.24788   0.33364 
 H                     10.94124  -4.34524   0.11236 
 H                     10.92447  -3.42091  -2.81853 
 H                     13.01416  -4.55823  -3.09283 
 H                     12.92448  -5.24938  -0.10125 
 H                     14.94822  -5.79911  -2.46909 
 H                     15.02176  -6.42261   0.5342 
 H                     16.97748  -6.96497  -1.90477 
 H                     17.18782  -7.51301   1.10695 
 H                     19.07735  -8.04764  -1.38553 
 H                     19.39266  -8.5234    1.62936 
 H                     21.23386  -9.05596  -0.89937 
 H                     21.62042  -9.47375   2.11596 
 H                     23.4314  -10.00795  -0.43396 
 H                     23.85843  -10.38867   2.58128 
 H                     25.66353  -10.92945   0.02471 
 H                     26.12256  -11.30001   3.03422 
 H                     27.29496  -11.6696   1.62545 
 H                    -28.56004   4.24731  -0.6096 
 

 GradGradGradGradGradGradGradGradGradGradGradGradGradGradGradGradGradGrad
 Berny optimization.
 Initialization pass.
                           ----------------------------
                           !    Initial Parameters    !
                           ! (Angstroms and Degrees)  !
 --------------------------                            --------------------------
 ! Name  Definition              Value          Derivative Info.                !
 --------------------------------------------------------------------------------
 ! R1    R(1,2)                  1.335          estimate D2E/DX2                !
 ! R2    R(1,51)                 1.0861         estimate D2E/DX2                !
 ! R3    R(1,102)                1.0852         estimate D2E/DX2                !
 ! R4    R(2,3)                  1.4772         estimate D2E/DX2                !
 ! R5    R(2,52)                 1.0867         estimate D2E/DX2                !
 ! R6    R(3,4)                  1.3396         estimate D2E/DX2                !
 ! R7    R(3,53)                 1.0878         estimate D2E/DX2                !
 ! R8    R(4,5)                  1.4777         estimate D2E/DX2                !
 ! R9    R(4,54)                 1.0877         estimate D2E/DX2                !
 ! R10   R(5,6)                  1.3399         estimate D2E/DX2                !
 ! R11   R(5,55)                 1.0877         estimate D2E/DX2                !
 ! R12   R(6,7)                  1.4787         estimate D2E/DX2                !
 ! R13   R(6,56)                 1.0877         estimate D2E/DX2                !
 ! R14   R(7,8)                  1.345          estimate D2E/DX2                !
 ! R15   R(7,57)                 1.0828         estimate D2E/DX2                !
 ! R16   R(8,9)                  1.4884         estimate D2E/DX2                !
 ! R17   R(8,58)                 1.0869         estimate D2E/DX2                !
 ! R18   R(9,10)                 1.3496         estimate D2E/DX2                !
 ! R19   R(9,59)                 1.0819         estimate D2E/DX2                !
 ! R20   R(10,11)                1.4874         estimate D2E/DX2                !
 ! R21   R(10,60)                1.0816         estimate D2E/DX2                !
 ! R22   R(11,12)                1.345          estimate D2E/DX2                !
 ! R23   R(11,61)                1.0869         estimate D2E/DX2                !
 ! R24   R(12,13)                1.4798         estimate D2E/DX2                !
 ! R25   R(12,62)                1.0831         estimate D2E/DX2                !
 ! R26   R(13,14)                1.345          estimate D2E/DX2                !
 ! R27   R(13,63)                1.0829         estimate D2E/DX2                !
 ! R28   R(14,15)                1.4883         estimate D2E/DX2                !
 ! R29   R(14,64)                1.0869         estimate D2E/DX2                !
 ! R30   R(15,16)                1.35           estimate D2E/DX2                !
 ! R31   R(15,65)                1.0817         estimate D2E/DX2                !
 ! R32   R(16,17)                1.488          estimate D2E/DX2                !
 ! R33   R(16,66)                1.0816         estimate D2E/DX2                !
 ! R34   R(17,18)                1.3445         estimate D2E/DX2                !
 ! R35   R(17,67)                1.0869         estimate D2E/DX2                !
 ! R36   R(18,19)                1.479          estimate D2E/DX2                !
 ! R37   R(18,68)                1.083          estimate D2E/DX2                !
 ! R38   R(19,20)                1.3394         estimate D2E/DX2                !
 ! R39   R(19,69)                1.0876         estimate D2E/DX2                !
 ! R40   R(20,21)                1.478          estimate D2E/DX2                !
 ! R41   R(20,70)                1.0878         estimate D2E/DX2                !
 ! R42   R(21,22)                1.3391         estimate D2E/DX2                !
 ! R43   R(21,71)                1.0876         estimate D2E/DX2                !
 ! R44   R(22,23)                1.478          estimate D2E/DX2                !
 ! R45   R(22,72)                1.0879         estimate D2E/DX2                !
 ! R46   R(23,24)                1.3391         estimate D2E/DX2                !
 ! R47   R(23,73)                1.0875         estimate D2E/DX2                !
 ! R48   R(24,25)                1.4781         estimate D2E/DX2                !
 ! R49   R(24,74)                1.088          estimate D2E/DX2                !
 ! R50   R(25,26)                1.3394         estimate D2E/DX2                !
 ! R51   R(25,75)                1.0874         estimate D2E/DX2                !
 ! R52   R(26,27)                1.4788         estimate D2E/DX2                !
 ! R53   R(26,76)                1.0881         estimate D2E/DX2                !
 ! R54   R(27,28)                1.3441         estimate D2E/DX2                !
 ! R55   R(27,77)                1.0838         estimate D2E/DX2                !
 ! R56   R(28,29)                1.4848         estimate D2E/DX2                !
 ! R57   R(28,78)                1.0872         estimate D2E/DX2                !
 ! R58   R(29,30)                1.3502         estimate D2E/DX2                !
 ! R59   R(29,79)                1.0805         estimate D2E/DX2                !
 ! R60   R(30,31)                1.4923         estimate D2E/DX2                !
 ! R61   R(30,80)                1.0827         estimate D2E/DX2                !
 ! R62   R(31,32)                1.3499         estimate D2E/DX2                !
 ! R63   R(31,81)                1.0825         estimate D2E/DX2                !
 ! R64   R(32,33)                1.4856         estimate D2E/DX2                !
 ! R65   R(32,82)                1.0806         estimate D2E/DX2                !
 ! R66   R(33,34)                1.35           estimate D2E/DX2                !
 ! R67   R(33,83)                1.0806         estimate D2E/DX2                !
 ! R68   R(34,35)                1.4925         estimate D2E/DX2                !
 ! R69   R(34,84)                1.0825         estimate D2E/DX2                !
 ! R70   R(35,36)                1.3501         estimate D2E/DX2                !
 ! R71   R(35,85)                1.0828         estimate D2E/DX2                !
 ! R72   R(36,37)                1.4847         estimate D2E/DX2                !
 ! R73   R(36,86)                1.0805         estimate D2E/DX2                !
 ! R74   R(37,38)                1.3441         estimate D2E/DX2                !
 ! R75   R(37,87)                1.0872         estimate D2E/DX2                !
 ! R76   R(38,39)                1.479          estimate D2E/DX2                !
 ! R77   R(38,88)                1.0838         estimate D2E/DX2                !
 ! R78   R(39,40)                1.3395         estimate D2E/DX2                !
 ! R79   R(39,89)                1.0881         estimate D2E/DX2                !
 ! R80   R(40,41)                1.4783         estimate D2E/DX2                !
 ! R81   R(40,90)                1.0873         estimate D2E/DX2                !
 ! R82   R(41,42)                1.3392         estimate D2E/DX2                !
 ! R83   R(41,91)                1.088          estimate D2E/DX2                !
 ! R84   R(42,43)                1.4782         estimate D2E/DX2                !
 ! R85   R(42,92)                1.0874         estimate D2E/DX2                !
 ! R86   R(43,44)                1.3392         estimate D2E/DX2                !
 ! R87   R(43,93)                1.0879         estimate D2E/DX2                !
 ! R88   R(44,45)                1.4782         estimate D2E/DX2                !
 ! R89   R(44,94)                1.0875         estimate D2E/DX2                !
 ! R90   R(45,46)                1.3392         estimate D2E/DX2                !
 ! R91   R(45,95)                1.0879         estimate D2E/DX2                !
 ! R92   R(46,47)                1.4781         estimate D2E/DX2                !
 ! R93   R(46,96)                1.0875         estimate D2E/DX2                !
 ! R94   R(47,48)                1.3393         estimate D2E/DX2                !
 ! R95   R(47,97)                1.0878         estimate D2E/DX2                !
 ! R96   R(48,49)                1.4775         estimate D2E/DX2                !
 ! R97   R(48,98)                1.0876         estimate D2E/DX2                !
 ! R98   R(49,50)                1.3349         estimate D2E/DX2                !
 ! R99   R(49,99)                1.0868         estimate D2E/DX2                !
 ! R100  R(50,100)               1.086          estimate D2E/DX2                !
 ! R101  R(50,101)               1.0853         estimate D2E/DX2                !
 ! A1    A(2,1,51)             121.1638         estimate D2E/DX2                !
 ! A2    A(2,1,102)            119.9783         estimate D2E/DX2                !
 ! A3    A(51,1,102)           118.8579         estimate D2E/DX2                !
 ! A4    A(1,2,3)              121.1            estimate D2E/DX2                !
 ! A5    A(1,2,52)             118.9736         estimate D2E/DX2                !
 ! A6    A(3,2,52)             119.9264         estimate D2E/DX2                !
 ! A7    A(2,3,4)              120.9678         estimate D2E/DX2                !
 ! A8    A(2,3,53)             119.2251         estimate D2E/DX2                !
 ! A9    A(4,3,53)             119.8071         estimate D2E/DX2                !
 ! A10   A(3,4,5)              120.8702         estimate D2E/DX2                !
 ! A11   A(3,4,54)             119.8097         estimate D2E/DX2                !
 ! A12   A(5,4,54)             119.3201         estimate D2E/DX2                !
 ! A13   A(4,5,6)              121.0487         estimate D2E/DX2                !
 ! A14   A(4,5,55)             119.1873         estimate D2E/DX2                !
 ! A15   A(6,5,55)             119.7639         estimate D2E/DX2                !
 ! A16   A(5,6,7)              120.8745         estimate D2E/DX2                !
 ! A17   A(5,6,56)             119.7558         estimate D2E/DX2                !
 ! A18   A(7,6,56)             119.3694         estimate D2E/DX2                !
 ! A19   A(6,7,8)              120.6964         estimate D2E/DX2                !
 ! A20   A(6,7,57)             117.9644         estimate D2E/DX2                !
 ! A21   A(8,7,57)             121.3386         estimate D2E/DX2                !
 ! A22   A(7,8,9)              125.1721         estimate D2E/DX2                !
 ! A23   A(7,8,58)             118.637          estimate D2E/DX2                !
 ! A24   A(9,8,58)             116.1899         estimate D2E/DX2                !
 ! A25   A(8,9,10)             124.7204         estimate D2E/DX2                !
 ! A26   A(8,9,59)             115.048          estimate D2E/DX2                !
 ! A27   A(10,9,59)            120.2314         estimate D2E/DX2                !
 ! A28   A(9,10,11)            124.9165         estimate D2E/DX2                !
 ! A29   A(9,10,60)            120.2785         estimate D2E/DX2                !
 ! A30   A(11,10,60)           114.8044         estimate D2E/DX2                !
 ! A31   A(10,11,12)           125.3647         estimate D2E/DX2                !
 ! A32   A(10,11,61)           116.0047         estimate D2E/DX2                !
 ! A33   A(12,11,61)           118.628          estimate D2E/DX2                !
 ! A34   A(11,12,13)           120.4395         estimate D2E/DX2                !
 ! A35   A(11,12,62)           121.2974         estimate D2E/DX2                !
 ! A36   A(13,12,62)           118.2589         estimate D2E/DX2                !
 ! A37   A(12,13,14)           120.7496         estimate D2E/DX2                !
 ! A38   A(12,13,63)           118.0285         estimate D2E/DX2                !
 ! A39   A(14,13,63)           121.2151         estimate D2E/DX2                !
 ! A40   A(13,14,15)           125.1637         estimate D2E/DX2                !
 ! A41   A(13,14,64)           118.6575         estimate D2E/DX2                !
 ! A42   A(15,14,64)           116.1702         estimate D2E/DX2                !
 ! A43   A(14,15,16)           124.804          estimate D2E/DX2                !
 ! A44   A(14,15,65)           114.9266         estimate D2E/DX2                !
 ! A45   A(16,15,65)           120.2664         estimate D2E/DX2                !
 ! A46   A(15,16,17)           124.8614         estimate D2E/DX2                !
 ! A47   A(15,16,66)           120.2759         estimate D2E/DX2                !
 ! A48   A(17,16,66)           114.858          estimate D2E/DX2                !
 ! A49   A(16,17,18)           125.1968         estimate D2E/DX2                !
 ! A50   A(16,17,67)           116.1613         estimate D2E/DX2                !
 ! A51   A(18,17,67)           118.6269         estimate D2E/DX2                !
 ! A52   A(17,18,19)           120.6089         estimate D2E/DX2                !
 ! A53   A(17,18,68)           121.299          estimate D2E/DX2                !
 ! A54   A(19,18,68)           118.0716         estimate D2E/DX2                !
 ! A55   A(18,19,20)           120.7688         estimate D2E/DX2                !
 ! A56   A(18,19,69)           119.4428         estimate D2E/DX2                !
 ! A57   A(20,19,69)           119.7629         estimate D2E/DX2                !
 ! A58   A(19,20,21)           121.1607         estimate D2E/DX2                !
 ! A59   A(19,20,70)           119.6679         estimate D2E/DX2                !
 ! A60   A(21,20,70)           119.1425         estimate D2E/DX2                !
 ! A61   A(20,21,22)           120.5024         estimate D2E/DX2                !
 ! A62   A(20,21,71)           119.536          estimate D2E/DX2                !
 ! A63   A(22,21,71)           119.9277         estimate D2E/DX2                !
 ! A64   A(21,22,23)           121.3502         estimate D2E/DX2                !
 ! A65   A(21,22,72)           119.5599         estimate D2E/DX2                !
 ! A66   A(23,22,72)           119.0544         estimate D2E/DX2                !
 ! A67   A(22,23,24)           120.2859         estimate D2E/DX2                !
 ! A68   A(22,23,73)           119.6576         estimate D2E/DX2                !
 ! A69   A(24,23,73)           120.0176         estimate D2E/DX2                !
 ! A70   A(23,24,25)           121.5635         estimate D2E/DX2                !
 ! A71   A(23,24,74)           119.4647         estimate D2E/DX2                !
 ! A72   A(25,24,74)           118.9342         estimate D2E/DX2                !
 ! A73   A(24,25,26)           120.0811         estimate D2E/DX2                !
 ! A74   A(24,25,75)           119.7612         estimate D2E/DX2                !
 ! A75   A(26,25,75)           120.1194         estimate D2E/DX2                !
 ! A76   A(25,26,27)           121.8174         estimate D2E/DX2                !
 ! A77   A(25,26,76)           119.3089         estimate D2E/DX2                !
 ! A78   A(27,26,76)           118.84           estimate D2E/DX2                !
 ! A79   A(26,27,28)           119.5878         estimate D2E/DX2                !
 ! A80   A(26,27,77)           118.8769         estimate D2E/DX2                !
 ! A81   A(28,27,77)           121.5028         estimate D2E/DX2                !
 ! A82   A(27,28,29)           125.7719         estimate D2E/DX2                !
 ! A83   A(27,28,78)           118.5458         estimate D2E/DX2                !
 ! A84   A(29,28,78)           115.6579         estimate D2E/DX2                !
 ! A85   A(28,29,30)           125.3892         estimate D2E/DX2                !
 ! A86   A(28,29,79)           114.0603         estimate D2E/DX2                !
 ! A87   A(30,29,79)           120.5482         estimate D2E/DX2                !
 ! A88   A(29,30,31)           124.4549         estimate D2E/DX2                !
 ! A89   A(29,30,80)           119.9757         estimate D2E/DX2                !
 ! A90   A(31,30,80)           115.5687         estimate D2E/DX2                !
 ! A91   A(30,31,32)           124.3122         estimate D2E/DX2                !
 ! A92   A(30,31,81)           115.5939         estimate D2E/DX2                !
 ! A93   A(32,31,81)           120.0781         estimate D2E/DX2                !
 ! A94   A(31,32,33)           125.6686         estimate D2E/DX2                !
 ! A95   A(31,32,82)           120.3595         estimate D2E/DX2                !
 ! A96   A(33,32,82)           113.962          estimate D2E/DX2                !
 ! A97   A(32,33,34)           125.6945         estimate D2E/DX2                !
 ! A98   A(32,33,83)           113.9403         estimate D2E/DX2                !
 ! A99   A(34,33,83)           120.3642         estimate D2E/DX2                !
 ! A100  A(33,34,35)           124.3288         estimate D2E/DX2                !
 ! A101  A(33,34,84)           120.0779         estimate D2E/DX2                !
 ! A102  A(35,34,84)           115.5902         estimate D2E/DX2                !
 ! A103  A(34,35,36)           124.4142         estimate D2E/DX2                !
 ! A104  A(34,35,85)           115.6288         estimate D2E/DX2                !
 ! A105  A(36,35,85)           119.955          estimate D2E/DX2                !
 ! A106  A(35,36,37)           125.421          estimate D2E/DX2                !
 ! A107  A(35,36,86)           120.5426         estimate D2E/DX2                !
 ! A108  A(37,36,86)           114.0359         estimate D2E/DX2                !
 ! A109  A(36,37,38)           125.853          estimate D2E/DX2                !
 ! A110  A(36,37,87)           115.6098         estimate D2E/DX2                !
 ! A111  A(38,37,87)           118.5305         estimate D2E/DX2                !
 ! A112  A(37,38,39)           119.5436         estimate D2E/DX2                !
 ! A113  A(37,38,88)           121.5131         estimate D2E/DX2                !
 ! A114  A(39,38,88)           118.9345         estimate D2E/DX2                !
 ! A115  A(38,39,40)           121.9563         estimate D2E/DX2                !
 ! A116  A(38,39,89)           118.7745         estimate D2E/DX2                !
 ! A117  A(40,39,89)           119.2606         estimate D2E/DX2                !
 ! A118  A(39,40,41)           120.0372         estimate D2E/DX2                !
 ! A119  A(39,40,90)           120.1501         estimate D2E/DX2                !
 ! A120  A(41,40,90)           119.8029         estimate D2E/DX2                !
 ! A121  A(40,41,42)           121.7096         estimate D2E/DX2                !
 ! A122  A(40,41,91)           118.8679         estimate D2E/DX2                !
 ! A123  A(42,41,91)           119.4137         estimate D2E/DX2                !
 ! A124  A(41,42,43)           120.2495         estimate D2E/DX2                !
 ! A125  A(41,42,92)           120.0457         estimate D2E/DX2                !
 ! A126  A(43,42,92)           119.6963         estimate D2E/DX2                !
 ! A127  A(42,43,44)           121.4891         estimate D2E/DX2                !
 ! A128  A(42,43,93)           118.9925         estimate D2E/DX2                !
 ! A129  A(44,43,93)           119.5118         estimate D2E/DX2                !
 ! A130  A(43,44,45)           120.473          estimate D2E/DX2                !
 ! A131  A(43,44,94)           119.9525         estimate D2E/DX2                !
 ! A132  A(45,44,94)           119.5692         estimate D2E/DX2                !
 ! A133  A(44,45,46)           121.2817         estimate D2E/DX2                !
 ! A134  A(44,45,95)           119.1076         estimate D2E/DX2                !
 ! A135  A(46,45,95)           119.6073         estimate D2E/DX2                !
 ! A136  A(45,46,47)           120.6783         estimate D2E/DX2                !
 ! A137  A(45,46,96)           119.8705         estimate D2E/DX2                !
 ! A138  A(47,46,96)           119.4489         estimate D2E/DX2                !
 ! A139  A(46,47,48)           121.1079         estimate D2E/DX2                !
 ! A140  A(46,47,97)           119.209          estimate D2E/DX2                !
 ! A141  A(48,47,97)           119.6821         estimate D2E/DX2                !
 ! A142  A(47,48,49)           120.8172         estimate D2E/DX2                !
 ! A143  A(47,48,98)           119.8485         estimate D2E/DX2                !
 ! A144  A(49,48,98)           119.3339         estimate D2E/DX2                !
 ! A145  A(48,49,50)           121.1642         estimate D2E/DX2                !
 ! A146  A(48,49,99)           119.9056         estimate D2E/DX2                !
 ! A147  A(50,49,99)           118.9301         estimate D2E/DX2                !
 ! A148  A(49,50,100)          121.1653         estimate D2E/DX2                !
 ! A149  A(49,50,101)          119.9494         estimate D2E/DX2                !
 ! A150  A(100,50,101)         118.8852         estimate D2E/DX2                !
 ! D1    D(51,1,2,3)             0.0005         estimate D2E/DX2                !
 ! D2    D(51,1,2,52)          179.9807         estimate D2E/DX2                !
 ! D3    D(102,1,2,3)         -179.9871         estimate D2E/DX2                !
 ! D4    D(102,1,2,52)          -0.0068         estimate D2E/DX2                !
 ! D5    D(1,2,3,4)            179.8971         estimate D2E/DX2                !
 ! D6    D(1,2,3,53)            -0.0524         estimate D2E/DX2                !
 ! D7    D(52,2,3,4)            -0.083          estimate D2E/DX2                !
 ! D8    D(52,2,3,53)          179.9676         estimate D2E/DX2                !
 ! D9    D(2,3,4,5)           -179.9282         estimate D2E/DX2                !
 ! D10   D(2,3,4,54)            -0.0078         estimate D2E/DX2                !
 ! D11   D(53,3,4,5)             0.021          estimate D2E/DX2                !
 ! D12   D(53,3,4,54)          179.9414         estimate D2E/DX2                !
 ! D13   D(3,4,5,6)            179.7028         estimate D2E/DX2                !
 ! D14   D(3,4,5,55)            -0.1633         estimate D2E/DX2                !
 ! D15   D(54,4,5,6)            -0.2179         estimate D2E/DX2                !
 ! D16   D(54,4,5,55)          179.916          estimate D2E/DX2                !
 ! D17   D(4,5,6,7)           -179.8071         estimate D2E/DX2                !
 ! D18   D(4,5,6,56)             0.0073         estimate D2E/DX2                !
 ! D19   D(55,5,6,7)             0.0581         estimate D2E/DX2                !
 ! D20   D(55,5,6,56)          179.8726         estimate D2E/DX2                !
 ! D21   D(5,6,7,8)            179.3873         estimate D2E/DX2                !
 ! D22   D(5,6,7,57)            -0.3305         estimate D2E/DX2                !
 ! D23   D(56,6,7,8)            -0.4279         estimate D2E/DX2                !
 ! D24   D(56,6,7,57)          179.8543         estimate D2E/DX2                !
 ! D25   D(6,7,8,9)           -179.6104         estimate D2E/DX2                !
 ! D26   D(6,7,8,58)             0.0186         estimate D2E/DX2                !
 ! D27   D(57,7,8,9)             0.0977         estimate D2E/DX2                !
 ! D28   D(57,7,8,58)          179.7268         estimate D2E/DX2                !
 ! D29   D(7,8,9,10)            -0.8865         estimate D2E/DX2                !
 ! D30   D(7,8,9,59)           178.9479         estimate D2E/DX2                !
 ! D31   D(58,8,9,10)          179.4763         estimate D2E/DX2                !
 ! D32   D(58,8,9,59)           -0.6893         estimate D2E/DX2                !
 ! D33   D(8,9,10,11)          179.4118         estimate D2E/DX2                !
 ! D34   D(8,9,10,60)           -0.3084         estimate D2E/DX2                !
 ! D35   D(59,9,10,11)          -0.4145         estimate D2E/DX2                !
 ! D36   D(59,9,10,60)         179.8653         estimate D2E/DX2                !
 ! D37   D(9,10,11,12)          -0.6681         estimate D2E/DX2                !
 ! D38   D(9,10,11,61)         179.9273         estimate D2E/DX2                !
 ! D39   D(60,10,11,12)        179.0658         estimate D2E/DX2                !
 ! D40   D(60,10,11,61)         -0.3388         estimate D2E/DX2                !
 ! D41   D(10,11,12,13)       -179.0341         estimate D2E/DX2                !
 ! D42   D(10,11,12,62)          0.2064         estimate D2E/DX2                !
 ! D43   D(61,11,12,13)          0.3563         estimate D2E/DX2                !
 ! D44   D(61,11,12,62)        179.5968         estimate D2E/DX2                !
 ! D45   D(11,12,13,14)        178.2537         estimate D2E/DX2                !
 ! D46   D(11,12,13,63)         -0.8097         estimate D2E/DX2                !
 ! D47   D(62,12,13,14)         -1.0095         estimate D2E/DX2                !
 ! D48   D(62,12,13,63)        179.9271         estimate D2E/DX2                !
 ! D49   D(12,13,14,15)       -178.5981         estimate D2E/DX2                !
 ! D50   D(12,13,14,64)          0.295          estimate D2E/DX2                !
 ! D51   D(63,13,14,15)          0.4352         estimate D2E/DX2                !
 ! D52   D(63,13,14,64)        179.3282         estimate D2E/DX2                !
 ! D53   D(13,14,15,16)         -1.8403         estimate D2E/DX2                !
 ! D54   D(13,14,15,65)        177.5263         estimate D2E/DX2                !
 ! D55   D(64,14,15,16)        179.2421         estimate D2E/DX2                !
 ! D56   D(64,14,15,65)         -1.3914         estimate D2E/DX2                !
 ! D57   D(14,15,16,17)        178.2687         estimate D2E/DX2                !
 ! D58   D(14,15,16,66)         -0.8997         estimate D2E/DX2                !
 ! D59   D(65,15,16,17)         -1.0661         estimate D2E/DX2                !
 ! D60   D(65,15,16,66)        179.7655         estimate D2E/DX2                !
 ! D61   D(15,16,17,18)         -1.4802         estimate D2E/DX2                !
 ! D62   D(15,16,17,67)        179.9575         estimate D2E/DX2                !
 ! D63   D(66,16,17,18)        177.7283         estimate D2E/DX2                !
 ! D64   D(66,16,17,67)         -0.834          estimate D2E/DX2                !
 ! D65   D(16,17,18,19)       -177.7017         estimate D2E/DX2                !
 ! D66   D(16,17,18,68)          0.6175         estimate D2E/DX2                !
 ! D67   D(67,17,18,19)          0.8281         estimate D2E/DX2                !
 ! D68   D(67,17,18,68)        179.1473         estimate D2E/DX2                !
 ! D69   D(17,18,19,20)        176.607          estimate D2E/DX2                !
 ! D70   D(17,18,19,69)         -1.5542         estimate D2E/DX2                !
 ! D71   D(68,18,19,20)         -1.7654         estimate D2E/DX2                !
 ! D72   D(68,18,19,69)       -179.9266         estimate D2E/DX2                !
 ! D73   D(18,19,20,21)       -177.241          estimate D2E/DX2                !
 ! D74   D(18,19,20,70)          0.7845         estimate D2E/DX2                !
 ! D75   D(69,19,20,21)          0.9143         estimate D2E/DX2                !
 ! D76   D(69,19,20,70)        178.9399         estimate D2E/DX2                !
 ! D77   D(19,20,21,22)        175.8319         estimate D2E/DX2                !
 ! D78   D(19,20,21,71)         -2.051          estimate D2E/DX2                !
 ! D79   D(70,20,21,22)         -2.2038         estimate D2E/DX2                !
 ! D80   D(70,20,21,71)        179.9133         estimate D2E/DX2                !
 ! D81   D(20,21,22,23)       -176.9195         estimate D2E/DX2                !
 ! D82   D(20,21,22,72)          0.8914         estimate D2E/DX2                !
 ! D83   D(71,21,22,23)          0.9552         estimate D2E/DX2                !
 ! D84   D(71,21,22,72)        178.766          estimate D2E/DX2                !
 ! D85   D(21,22,23,24)        175.3035         estimate D2E/DX2                !
 ! D86   D(21,22,23,73)         -2.4293         estimate D2E/DX2                !
 ! D87   D(72,22,23,24)         -2.5181         estimate D2E/DX2                !
 ! D88   D(72,22,23,73)        179.749          estimate D2E/DX2                !
 ! D89   D(22,23,24,25)       -176.7965         estimate D2E/DX2                !
 ! D90   D(22,23,24,74)          0.9497         estimate D2E/DX2                !
 ! D91   D(73,23,24,25)          0.9281         estimate D2E/DX2                !
 ! D92   D(73,23,24,74)        178.6743         estimate D2E/DX2                !
 ! D93   D(23,24,25,26)        175.1241         estimate D2E/DX2                !
 ! D94   D(23,24,25,75)         -2.6295         estimate D2E/DX2                !
 ! D95   D(74,24,25,26)         -2.6338         estimate D2E/DX2                !
 ! D96   D(74,24,25,75)        179.6126         estimate D2E/DX2                !
 ! D97   D(24,25,26,27)       -176.9226         estimate D2E/DX2                !
 ! D98   D(24,25,26,76)          0.9427         estimate D2E/DX2                !
 ! D99   D(75,25,26,27)          0.823          estimate D2E/DX2                !
 ! D100  D(75,25,26,76)        178.6882         estimate D2E/DX2                !
 ! D101  D(25,26,27,28)        175.3483         estimate D2E/DX2                !
 ! D102  D(25,26,27,77)         -2.6109         estimate D2E/DX2                !
 ! D103  D(76,26,27,28)         -2.5267         estimate D2E/DX2                !
 ! D104  D(76,26,27,77)        179.5142         estimate D2E/DX2                !
 ! D105  D(26,27,28,29)       -177.2997         estimate D2E/DX2                !
 ! D106  D(26,27,28,78)          0.8202         estimate D2E/DX2                !
 ! D107  D(77,27,28,29)          0.6042         estimate D2E/DX2                !
 ! D108  D(77,27,28,78)        178.7241         estimate D2E/DX2                !
 ! D109  D(27,28,29,30)         -3.1248         estimate D2E/DX2                !
 ! D110  D(27,28,29,79)        176.3214         estimate D2E/DX2                !
 ! D111  D(78,28,29,30)        178.7074         estimate D2E/DX2                !
 ! D112  D(78,28,29,79)         -1.8464         estimate D2E/DX2                !
 ! D113  D(28,29,30,31)        178.1488         estimate D2E/DX2                !
 ! D114  D(28,29,30,80)         -1.5324         estimate D2E/DX2                !
 ! D115  D(79,29,30,31)         -1.264          estimate D2E/DX2                !
 ! D116  D(79,29,30,80)        179.0549         estimate D2E/DX2                !
 ! D117  D(29,30,31,32)         -4.6153         estimate D2E/DX2                !
 ! D118  D(29,30,31,81)        176.8375         estimate D2E/DX2                !
 ! D119  D(80,30,31,32)        175.0786         estimate D2E/DX2                !
 ! D120  D(80,30,31,81)         -3.4686         estimate D2E/DX2                !
 ! D121  D(30,31,32,33)       -178.7273         estimate D2E/DX2                !
 ! D122  D(30,31,32,82)          0.0556         estimate D2E/DX2                !
 ! D123  D(81,31,32,33)         -0.2415         estimate D2E/DX2                !
 ! D124  D(81,31,32,82)        178.5415         estimate D2E/DX2                !
 ! D125  D(31,32,33,34)         -3.4139         estimate D2E/DX2                !
 ! D126  D(31,32,33,83)        176.9404         estimate D2E/DX2                !
 ! D127  D(82,32,33,34)        177.7353         estimate D2E/DX2                !
 ! D128  D(82,32,33,83)         -1.9104         estimate D2E/DX2                !
 ! D129  D(32,33,34,35)        179.8123         estimate D2E/DX2                !
 ! D130  D(32,33,34,84)         -0.8529         estimate D2E/DX2                !
 ! D131  D(83,33,34,35)         -0.563          estimate D2E/DX2                !
 ! D132  D(83,33,34,84)        178.7718         estimate D2E/DX2                !
 ! D133  D(33,34,35,36)         -4.626          estimate D2E/DX2                !
 ! D134  D(33,34,35,85)        175.89           estimate D2E/DX2                !
 ! D135  D(84,34,35,36)        176.0122         estimate D2E/DX2                !
 ! D136  D(84,34,35,85)         -3.4717         estimate D2E/DX2                !
 ! D137  D(34,35,36,37)        179.6311         estimate D2E/DX2                !
 ! D138  D(34,35,36,86)         -0.6532         estimate D2E/DX2                !
 ! D139  D(85,35,36,37)         -0.9059         estimate D2E/DX2                !
 ! D140  D(85,35,36,86)        178.8098         estimate D2E/DX2                !
 ! D141  D(35,36,37,38)         -3.1314         estimate D2E/DX2                !
 ! D142  D(35,36,37,87)        177.8258         estimate D2E/DX2                !
 ! D143  D(86,36,37,38)        177.1367         estimate D2E/DX2                !
 ! D144  D(86,36,37,87)         -1.9061         estimate D2E/DX2                !
 ! D145  D(36,37,38,39)       -178.8747         estimate D2E/DX2                !
 ! D146  D(36,37,38,88)          0.0315         estimate D2E/DX2                !
 ! D147  D(87,37,38,39)          0.1428         estimate D2E/DX2                !
 ! D148  D(87,37,38,88)        179.0491         estimate D2E/DX2                !
 ! D149  D(37,38,39,40)        176.6646         estimate D2E/DX2                !
 ! D150  D(37,38,39,89)         -2.2577         estimate D2E/DX2                !
 ! D151  D(88,38,39,40)         -2.27           estimate D2E/DX2                !
 ! D152  D(88,38,39,89)        178.8077         estimate D2E/DX2                !
 ! D153  D(38,39,40,41)       -178.6495         estimate D2E/DX2                !
 ! D154  D(38,39,40,90)          0.2088         estimate D2E/DX2                !
 ! D155  D(89,39,40,41)          0.2677         estimate D2E/DX2                !
 ! D156  D(89,39,40,90)        179.126          estimate D2E/DX2                !
 ! D157  D(39,40,41,42)        176.7315         estimate D2E/DX2                !
 ! D158  D(39,40,41,91)         -2.1798         estimate D2E/DX2                !
 ! D159  D(90,40,41,42)         -2.1309         estimate D2E/DX2                !
 ! D160  D(90,40,41,91)        178.9578         estimate D2E/DX2                !
 ! D161  D(40,41,42,43)       -178.6577         estimate D2E/DX2                !
 ! D162  D(40,41,42,92)          0.278          estimate D2E/DX2                !
 ! D163  D(91,41,42,43)          0.2478         estimate D2E/DX2                !
 ! D164  D(91,41,42,92)        179.1835         estimate D2E/DX2                !
 ! D165  D(41,42,43,44)        177.17           estimate D2E/DX2                !
 ! D166  D(41,42,43,93)         -1.8971         estimate D2E/DX2                !
 ! D167  D(92,42,43,44)         -1.7694         estimate D2E/DX2                !
 ! D168  D(92,42,43,93)        179.1635         estimate D2E/DX2                !
 ! D169  D(42,43,44,45)       -178.8859         estimate D2E/DX2                !
 ! D170  D(42,43,44,94)          0.2722         estimate D2E/DX2                !
 ! D171  D(93,43,44,45)          0.1765         estimate D2E/DX2                !
 ! D172  D(93,43,44,94)        179.3346         estimate D2E/DX2                !
 ! D173  D(43,44,45,46)        177.8906         estimate D2E/DX2                !
 ! D174  D(43,44,45,95)         -1.4444         estimate D2E/DX2                !
 ! D175  D(94,44,45,46)         -1.2708         estimate D2E/DX2                !
 ! D176  D(94,44,45,95)        179.3942         estimate D2E/DX2                !
 ! D177  D(44,45,46,47)       -179.25           estimate D2E/DX2                !
 ! D178  D(44,45,46,96)          0.2084         estimate D2E/DX2                !
 ! D179  D(95,45,46,47)          0.0817         estimate D2E/DX2                !
 ! D180  D(95,45,46,96)        179.54           estimate D2E/DX2                !
 ! D181  D(45,46,47,48)        178.7299         estimate D2E/DX2                !
 ! D182  D(45,46,47,97)         -0.9091         estimate D2E/DX2                !
 ! D183  D(96,46,47,48)         -0.7307         estimate D2E/DX2                !
 ! D184  D(96,46,47,97)        179.6303         estimate D2E/DX2                !
 ! D185  D(46,47,48,49)       -179.6386         estimate D2E/DX2                !
 ! D186  D(46,47,48,98)          0.1134         estimate D2E/DX2                !
 ! D187  D(97,47,48,49)         -0.0012         estimate D2E/DX2                !
 ! D188  D(97,47,48,98)        179.7508         estimate D2E/DX2                !
 ! D189  D(47,48,49,50)        179.4933         estimate D2E/DX2                !
 ! D190  D(47,48,49,99)         -0.3943         estimate D2E/DX2                !
 ! D191  D(98,48,49,50)         -0.2599         estimate D2E/DX2                !
 ! D192  D(98,48,49,99)        179.8525         estimate D2E/DX2                !
 ! D193  D(48,49,50,100)         0.0154         estimate D2E/DX2                !
 ! D194  D(48,49,50,101)      -179.9193         estimate D2E/DX2                !
 ! D195  D(99,49,50,100)       179.9041         estimate D2E/DX2                !
 ! D196  D(99,49,50,101)        -0.0306         estimate D2E/DX2                !
 --------------------------------------------------------------------------------
 Trust Radius=3.00D-01 FncErr=1.00D-07 GrdErr=1.00D-06 EigMax=2.50D+02 EigMin=1.00D-04
 Number of steps in this run=    457 maximum allowed number of steps=    612.
 GradGradGradGradGradGradGradGradGradGradGradGradGradGradGradGradGradGrad

 Stoichiometry    C50H52
 Framework group  C1[X(C50H52)]
 Deg. of freedom   300
 Full point group                 C1      NOp   1
 Largest Abelian subgroup         C1      NOp   1
 Largest concise Abelian subgroup C1      NOp   1
                         Standard orientation:                         
 ---------------------------------------------------------------------
 Center     Atomic      Atomic             Coordinates (Angstroms)
 Number     Number       Type             X           Y           Z
 ---------------------------------------------------------------------
      1          6           0       27.807687    3.117840   -1.265008
      2          6           0       26.909524    2.152408   -1.473773
      3          6           0       25.510567    2.301371   -1.023425
      4          6           0       24.610995    1.331767   -1.236111
      5          6           0       23.211748    1.483713   -0.786087
      6          6           0       22.307641    0.518682   -1.002171
      7          6           0       20.907399    0.676572   -0.553916
      8          6           0       19.999885   -0.289254   -0.783544
      9          6           0       18.566991   -0.231661   -0.384929
     10          6           0       17.993933    0.795408    0.276968
     11          6           0       16.560068    0.863029    0.666484
     12          6           0       15.636757   -0.079025    0.403717
     13          6           0       14.230975    0.110836    0.825165
     14          6           0       13.295605   -0.811067    0.535072
     15          6           0       11.852493   -0.707036    0.883700
     16          6           0       11.297346    0.314122    1.570399
     17          6           0        9.848913    0.437508    1.888018
     18          6           0        8.896093   -0.433189    1.511594
     19          6           0        7.475943   -0.184374    1.841100
     20          6           0        6.516982   -1.014094    1.409974
     21          6           0        5.090207   -0.741371    1.682790
     22          6           0        4.137590   -1.533991    1.175408
     23          6           0        2.703515   -1.240588    1.380087
     24          6           0        1.768723   -1.992991    0.785735
     25          6           0        0.329235   -1.683034    0.914215
     26          6           0       -0.574636   -2.395519    0.229189
     27          6           0       -2.017788   -2.076125    0.276793
     28          6           0       -2.874864   -2.760104   -0.500477
     29          6           0       -4.335975   -2.517048   -0.604138
     30          6           0       -5.030481   -1.608851    0.114126
     31          6           0       -6.493356   -1.354393   -0.034999
     32          6           0       -7.276353   -1.938899   -0.966463
     33          6           0       -8.727968   -1.688260   -1.158945
     34          6           0       -9.497663   -0.887665   -0.391347
     35          6           0      -10.954685   -0.654474   -0.615275
     36          6           0      -11.653963   -1.144343   -1.661183
     37          6           0      -13.103726   -0.933089   -1.901623
     38          6           0      -13.948933   -0.275762   -1.089064
     39          6           0      -15.377948   -0.169481   -1.455123
     40          6           0      -16.274165    0.416785   -0.650596
     41          6           0      -17.697629    0.473188   -1.045402
     42          6           0      -18.631741    0.993226   -0.238859
     43          6           0      -20.050451    1.006432   -0.653956
     44          6           0      -21.011859    1.468952    0.155511
     45          6           0      -22.426460    1.449024   -0.272990
     46          6           0      -23.405091    1.868611    0.539294
     47          6           0      -24.816827    1.827447    0.103154
     48          6           0      -25.804410    2.221247    0.917579
     49          6           0      -27.214036    2.169942    0.477805
     50          6           0      -28.204533    2.551269    1.287354
     51          1           0       27.535086    4.039151   -0.758547
     52          1           0       27.220955    1.245185   -1.984548
     53          1           0       25.211340    3.214024   -0.512807
     54          1           0       24.909922    0.419569   -1.747533
     55          1           0       22.915485    2.396263   -0.273635
     56          1           0       22.603538   -0.392899   -1.516456
     57          1           0       20.638258    1.592078   -0.042108
     58          1           0       20.316906   -1.188530   -1.305180
     59          1           0       17.977874   -1.093929   -0.667674
     60          1           0       18.582627    1.656806    0.561905
     61          1           0       16.252438    1.759760    1.198058
     62          1           0       15.894386   -0.986318   -0.128875
     63          1           0       13.977798    1.018656    1.358410
     64          1           0       13.593688   -1.701948   -0.011554
     65          1           0       11.238625   -1.525897    0.533248
     66          1           0       11.911594    1.131072    1.924150
     67          1           0        9.555161    1.319826    2.450615
     68          1           0        9.138514   -1.319323    0.938019
     69          1           0        7.207216    0.699500    2.415134
     70          1           0        6.786072   -1.888374    0.821222
     71          1           0        4.814046    0.130109    2.271897
     72          1           0        4.420041   -2.392756    0.570133
     73          1           0        2.410131   -0.387036    1.986732
     74          1           0        2.073037   -2.831823    0.163221
     75          1           0        0.009691   -0.851583    1.537951
     76          1           0       -0.238317   -3.211126   -0.407684
     77          1           0       -2.354383   -1.269036    0.917035
     78          1           0       -2.481982   -3.546754   -1.139836
     79          1           0       -4.835067   -3.137664   -1.334339
     80          1           0       -4.523755   -1.002459    0.854261
     81          1           0       -6.914537   -0.630910    0.651358
     82          1           0       -6.855809   -2.644066   -1.669010
     83          1           0       -9.157678   -2.220435   -1.995444
     84          1           0       -9.066672   -0.372257    0.457467
     85          1           0      -11.450074   -0.040213    0.126171
     86          1           0      -11.165118   -1.742356   -2.416714
     87          1           0      -13.497146   -1.370840   -2.815682
     88          1           0      -13.611730    0.166031   -0.158585
     89          1           0      -15.709990   -0.596769   -2.399086
     90          1           0      -15.960660    0.835914    0.302487
     91          1           0      -17.991820    0.064557   -2.009871
     92          1           0      -18.351040    1.392376    0.732927
     93          1           0      -20.316713    0.616794   -1.634193
     94          1           0      -20.755004    1.850038    1.141118
     95          1           0      -22.673908    1.075462   -1.264282
     96          1           0      -23.163255    2.235878    1.533967
     97          1           0      -25.053784    1.465056   -0.894788
     98          1           0      -25.570899    2.580207    1.917323
     99          1           0      -27.457751    1.815091   -0.520149
    100          1           0      -28.002475    2.910290    2.292138
    101          1           0      -29.233114    2.504191    0.944420
    102          1           0       28.830604    2.989281   -1.603758
 ---------------------------------------------------------------------
 Rotational constants (GHZ):           0.2305621           0.0028174           0.0028055
 Standard basis: 6-31G(d,p) (6D, 7F)
 There are  1010 symmetry adapted cartesian basis functions of A   symmetry.
 There are  1010 symmetry adapted basis functions of A   symmetry.
  1010 basis functions,  1764 primitive gaussians,  1010 cartesian basis functions
   176 alpha electrons      176 beta electrons
       nuclear repulsion energy      3719.2848054683 Hartrees.
 NAtoms=  102 NActive=  102 NUniq=  102 SFac= 1.00D+00 NAtFMM=   60 NAOKFM=T Big=T
 Integral buffers will be    131072 words long.
 Raffenetti 2 integral format.
 Two-electron integral symmetry is turned on.
 One-electron integrals computed using PRISM.
 NBasis=  1010 RedAO= T EigKep=  7.40D-04  NBF=  1010
 NBsUse=  1010 1.00D-06 EigRej= -1.00D+00 NBFU=  1010
 ExpMin= 1.61D-01 ExpMax= 3.05D+03 ExpMxC= 4.57D+02 IAcc=3 IRadAn=         5 AccDes= 0.00D+00
 Harris functional with IExCor=  402 and IRadAn=       5 diagonalized for initial guess.
 HarFok:  IExCor=  402 AccDes= 0.00D+00 IRadAn=         5 IDoV= 1 UseB2=F ITyADJ=14
 ICtDFT=  3500011 ScaDFX=  1.000000  1.000000  1.000000  1.000000
 FoFCou: FMM=F IPFlag=           0 FMFlag=      100000 FMFlg1=        2001
         NFxFlg=           0 DoJE=T BraDBF=F KetDBF=T FulRan=T
         wScrn=  0.000000 ICntrl=       500 IOpCl=  0 I1Cent=   200000004 NGrid=           0
         NMat0=    1 NMatS0=      1 NMatT0=    0 NMatD0=    1 NMtDS0=    0 NMtDT0=    0
 Petite list used in FoFCou.
 Requested convergence on RMS density matrix=1.00D-08 within 128 cycles.
 Requested convergence on MAX density matrix=1.00D-06.
 Requested convergence on             energy=1.00D-06.
 No special actions if energy rises.
 Integral accuracy reduced to 1.0D-05 until final iterations.
 Initial convergence to 1.0D-05 achieved.  Increase integral accuracy.
 SCF Done:  E(RB3LYP) =  -1936.34499303     A.U. after   13 cycles
            NFock= 13  Conv=0.73D-08     -V/T= 2.0101
 Hyperfine terms turned off by default for NAtoms > 100.

 **********************************************************************

            Population analysis using the SCF Density.

 **********************************************************************

 Orbital symmetries:
       Occupied  (A) (A) (A) (A) (A) (A) (A) (A) (A) (A) (A) (A)
                 (A) (A) (A) (A) (A) (A) (A) (A) (A) (A) (A) (A)
                 (A) (A) (A) (A) (A) (A) (A) (A) (A) (A) (A) (A)
                 (A) (A) (A) (A) (A) (A) (A) (A) (A) (A) (A) (A)
                 (A) (A) (A) (A) (A) (A) (A) (A) (A) (A) (A) (A)
                 (A) (A) (A) (A) (A) (A) (A) (A) (A) (A) (A) (A)
                 (A) (A) (A) (A) (A) (A) (A) (A) (A) (A) (A) (A)
                 (A) (A) (A) (A) (A) (A) (A) (A) (A) (A) (A) (A)
                 (A) (A) (A) (A) (A) (A) (A) (A) (A) (A) (A) (A)
                 (A) (A) (A) (A) (A) (A) (A) (A) (A) (A) (A) (A)
                 (A) (A) (A) (A) (A) (A) (A) (A) (A) (A) (A) (A)
                 (A) (A) (A) (A) (A) (A) (A) (A) (A) (A) (A) (A)
                 (A) (A) (A) (A) (A) (A) (A) (A) (A) (A) (A) (A)
                 (A) (A) (A) (A) (A) (A) (A) (A) (A) (A) (A) (A)
                 (A) (A) (A) (A) (A) (A) (A) (A)
       Virtual   (A) (A) (A) (A) (A) (A) (A) (A) (A) (A) (A) (A)
                 (A) (A) (A) (A) (A) (A) (A) (A) (A) (A) (A) (A)
                 (A) (A) (A) (A) (A) (A) (A) (A) (A) (A) (A) (A)
                 (A) (A) (A) (A) (A) (A) (A) (A) (A) (A) (A) (A)
                 (A) (A) (A) (A) (A) (A) (A) (A) (A) (A) (A) (A)
                 (A) (A) (A) (A) (A) (A) (A) (A) (A) (A) (A) (A)
                 (A) (A) (A) (A) (A) (A) (A) (A) (A) (A) (A) (A)
                 (A) (A) (A) (A) (A) (A) (A) (A) (A) (A) (A) (A)
                 (A) (A) (A) (A) (A) (A) (A) (A) (A) (A) (A) (A)
                 (A) (A) (A) (A) (A) (A) (A) (A) (A) (A) (A) (A)
                 (A) (A) (A) (A) (A) (A) (A) (A) (A) (A) (A) (A)
                 (A) (A) (A) (A) (A) (A) (A) (A) (A) (A) (A) (A)
                 (A) (A) (A) (A) (A) (A) (A) (A) (A) (A) (A) (A)
                 (A) (A) (A) (A) (A) (A) (A) (A) (A) (A) (A) (A)
                 (A) (A) (A) (A) (A) (A) (A) (A) (A) (A) (A) (A)
                 (A) (A) (A) (A) (A) (A) (A) (A) (A) (A) (A) (A)
                 (A) (A) (A) (A) (A) (A) (A) (A) (A) (A) (A) (A)
                 (A) (A) (A) (A) (A) (A) (A) (A) (A) (A) (A) (A)
                 (A) (A) (A) (A) (A) (A) (A) (A) (A) (A) (A) (A)
                 (A) (A) (A) (A) (A) (A) (A) (A) (A) (A) (A) (A)
                 (A) (A) (A) (A) (A) (A) (A) (A) (A) (A) (A) (A)
                 (A) (A) (A) (A) (A) (A) (A) (A) (A) (A) (A) (A)
                 (A) (A) (A) (A) (A) (A) (A) (A) (A) (A) (A) (A)
                 (A) (A) (A) (A) (A) (A) (A) (A) (A) (A) (A) (A)
                 (A) (A) (A) (A) (A) (A) (A) (A) (A) (A) (A) (A)
                 (A) (A) (A) (A) (A) (A) (A) (A) (A) (A) (A) (A)
                 (A) (A) (A) (A) (A) (A) (A) (A) (A) (A) (A) (A)
                 (A) (A) (A) (A) (A) (A) (A) (A) (A) (A) (A) (A)
                 (A) (A) (A) (A) (A) (A) (A) (A) (A) (A) (A) (A)
                 (A) (A) (A) (A) (A) (A) (A) (A) (A) (A) (A) (A)
                 (A) (A) (A) (A) (A) (A) (A) (A) (A) (A) (A) (A)
                 (A) (A) (A) (A) (A) (A) (A) (A) (A) (A) (A) (A)
                 (A) (A) (A) (A) (A) (A) (A) (A) (A) (A) (A) (A)
                 (A) (A) (A) (A) (A) (A) (A) (A) (A) (A) (A) (A)
                 (A) (A) (A) (A) (A) (A) (A) (A) (A) (A) (A) (A)
                 (A) (A) (A) (A) (A) (A) (A) (A) (A) (A) (A) (A)
                 (A) (A) (A) (A) (A) (A) (A) (A) (A) (A) (A) (A)
                 (A) (A) (A) (A) (A) (A) (A) (A) (A) (A) (A) (A)
                 (A) (A) (A) (A) (A) (A) (A) (A) (A) (A) (A) (A)
                 (A) (A) (A) (A) (A) (A) (A) (A) (A) (A) (A) (A)
                 (A) (A) (A) (A) (A) (A) (A) (A) (A) (A) (A) (A)
                 (A) (A) (A) (A) (A) (A) (A) (A) (A) (A) (A) (A)
                 (A) (A) (A) (A) (A) (A) (A) (A) (A) (A) (A) (A)
                 (A) (A) (A) (A) (A) (A) (A) (A) (A) (A) (A) (A)
                 (A) (A) (A) (A) (A) (A) (A) (A) (A) (A) (A) (A)
                 (A) (A) (A) (A) (A) (A) (A) (A) (A) (A) (A) (A)
                 (A) (A) (A) (A) (A) (A) (A) (A) (A) (A) (A) (A)
                 (A) (A) (A) (A) (A) (A) (A) (A) (A) (A) (A) (A)
                 (A) (A) (A) (A) (A) (A) (A) (A) (A) (A) (A) (A)
                 (A) (A) (A) (A) (A) (A) (A) (A) (A) (A) (A) (A)
                 (A) (A) (A) (A) (A) (A) (A) (A) (A) (A) (A) (A)
                 (A) (A) (A) (A) (A) (A) (A) (A) (A) (A) (A) (A)
                 (A) (A) (A) (A) (A) (A) (A) (A) (A) (A) (A) (A)
                 (A) (A) (A) (A) (A) (A) (A) (A) (A) (A) (A) (A)
                 (A) (A) (A) (A) (A) (A) (A) (A) (A) (A) (A) (A)
                 (A) (A) (A) (A) (A) (A) (A) (A) (A) (A) (A) (A)
                 (A) (A) (A) (A) (A) (A) (A) (A) (A) (A) (A) (A)
                 (A) (A) (A) (A) (A) (A) (A) (A) (A) (A) (A) (A)
                 (A) (A) (A) (A) (A) (A) (A) (A) (A) (A) (A) (A)
                 (A) (A) (A) (A) (A) (A) (A) (A) (A) (A) (A) (A)
                 (A) (A) (A) (A) (A) (A) (A) (A) (A) (A) (A) (A)
                 (A) (A) (A) (A) (A) (A) (A) (A) (A) (A) (A) (A)
                 (A) (A) (A) (A) (A) (A) (A) (A) (A) (A) (A) (A)
                 (A) (A) (A) (A) (A) (A) (A) (A) (A) (A) (A) (A)
                 (A) (A) (A) (A) (A) (A) (A) (A) (A) (A) (A) (A)
                 (A) (A) (A) (A) (A) (A) (A) (A) (A) (A) (A) (A)
                 (A) (A) (A) (A) (A) (A) (A) (A) (A) (A) (A) (A)
                 (A) (A) (A) (A) (A) (A) (A) (A) (A) (A) (A) (A)
                 (A) (A) (A) (A) (A) (A) (A) (A) (A) (A) (A) (A)
                 (A) (A) (A) (A) (A) (A)
 The electronic state is 1-A.
 Alpha  occ. eigenvalues --  -10.19426 -10.19424 -10.19389 -10.19387 -10.19304
 Alpha  occ. eigenvalues --  -10.19299 -10.19285 -10.19279 -10.19268 -10.19251
 Alpha  occ. eigenvalues --  -10.19245 -10.19242 -10.19226 -10.19215 -10.19215
 Alpha  occ. eigenvalues --  -10.19213 -10.19210 -10.19206 -10.19204 -10.19199
 Alpha  occ. eigenvalues --  -10.19189 -10.19189 -10.19185 -10.19179 -10.19177
 Alpha  occ. eigenvalues --  -10.19175 -10.19167 -10.19163 -10.19161 -10.19156
 Alpha  occ. eigenvalues --  -10.19156 -10.19149 -10.19127 -10.19123 -10.19122
 Alpha  occ. eigenvalues --  -10.19121 -10.19113 -10.19099 -10.19093 -10.19086
 Alpha  occ. eigenvalues --  -10.19078 -10.19076 -10.19060 -10.19057 -10.19024
 Alpha  occ. eigenvalues --  -10.19008 -10.18995 -10.18915 -10.17976 -10.17896
 Alpha  occ. eigenvalues --   -0.82957  -0.82870  -0.82726  -0.82495  -0.82281
 Alpha  occ. eigenvalues --   -0.81995  -0.81634  -0.81182  -0.80750  -0.80258
 Alpha  occ. eigenvalues --   -0.79685  -0.79078  -0.78422  -0.77721  -0.76970
 Alpha  occ. eigenvalues --   -0.76200  -0.75376  -0.74438  -0.73602  -0.72729
 Alpha  occ. eigenvalues --   -0.71779  -0.70803  -0.70097  -0.68899  -0.68255
 Alpha  occ. eigenvalues --   -0.65141  -0.64403  -0.62833  -0.62271  -0.61433
 Alpha  occ. eigenvalues --   -0.60171  -0.59693  -0.58845  -0.57741  -0.57117
 Alpha  occ. eigenvalues --   -0.56877  -0.56856  -0.56747  -0.56172  -0.56068
 Alpha  occ. eigenvalues --   -0.55862  -0.55353  -0.55116  -0.55059  -0.54996
 Alpha  occ. eigenvalues --   -0.54490  -0.52742  -0.52321  -0.51866  -0.50146
 Alpha  occ. eigenvalues --   -0.50091  -0.48998  -0.48682  -0.48356  -0.47841
 Alpha  occ. eigenvalues --   -0.47456  -0.47209  -0.46873  -0.46443  -0.46173
 Alpha  occ. eigenvalues --   -0.45632  -0.45333  -0.44883  -0.44457  -0.44255
 Alpha  occ. eigenvalues --   -0.43495  -0.43265  -0.43036  -0.42231  -0.41501
 Alpha  occ. eigenvalues --   -0.41140  -0.40846  -0.40632  -0.40261  -0.39785
 Alpha  occ. eigenvalues --   -0.39369  -0.39122  -0.38797  -0.38451  -0.38208
 Alpha  occ. eigenvalues --   -0.38038  -0.37855  -0.37614  -0.37476  -0.37155
 Alpha  occ. eigenvalues --   -0.36978  -0.36631  -0.36363  -0.36051  -0.35997
 Alpha  occ. eigenvalues --   -0.35856  -0.35504  -0.35283  -0.35188  -0.35147
 Alpha  occ. eigenvalues --   -0.35102  -0.34995  -0.34753  -0.34643  -0.34502
 Alpha  occ. eigenvalues --   -0.34412  -0.34246  -0.34067  -0.34019  -0.33613
 Alpha  occ. eigenvalues --   -0.33522  -0.33182  -0.33175  -0.33039  -0.32495
 Alpha  occ. eigenvalues --   -0.31869  -0.31136  -0.30360  -0.29522  -0.28624
 Alpha  occ. eigenvalues --   -0.27658  -0.26647  -0.25577  -0.24437  -0.23285
 Alpha  occ. eigenvalues --   -0.22098  -0.20876  -0.19633  -0.18522  -0.17427
 Alpha  occ. eigenvalues --   -0.16689
 Alpha virt. eigenvalues --   -0.08584  -0.07790  -0.06299  -0.05247  -0.03937
 Alpha virt. eigenvalues --   -0.02505  -0.01261  -0.00120   0.01455   0.02721
 Alpha virt. eigenvalues --    0.03861   0.04814   0.05937   0.06996   0.07602
 Alpha virt. eigenvalues --    0.07798   0.07906   0.08306   0.08311   0.08580
 Alpha virt. eigenvalues --    0.08941   0.08969   0.09432   0.09475   0.09548
 Alpha virt. eigenvalues --    0.09714   0.09901   0.09968   0.10453   0.11149
 Alpha virt. eigenvalues --    0.11673   0.11814   0.11956   0.12082   0.12120
 Alpha virt. eigenvalues --    0.12491   0.12516   0.12596   0.12693   0.13022
 Alpha virt. eigenvalues --    0.13101   0.13153   0.13307   0.13870   0.14028
 Alpha virt. eigenvalues --    0.14163   0.14236   0.14270   0.14407   0.14569
 Alpha virt. eigenvalues --    0.14612   0.14885   0.14941   0.15137   0.15413
 Alpha virt. eigenvalues --    0.15451   0.15492   0.15827   0.16190   0.16255
 Alpha virt. eigenvalues --    0.16721   0.17533   0.18208   0.18916   0.19352
 Alpha virt. eigenvalues --    0.19634   0.19823   0.19970   0.20627   0.21118
 Alpha virt. eigenvalues --    0.21343   0.21980   0.22506   0.22650   0.22832
 Alpha virt. eigenvalues --    0.24786   0.25759   0.25902   0.27086   0.27205
 Alpha virt. eigenvalues --    0.27291   0.27842   0.28340   0.28504   0.28625
 Alpha virt. eigenvalues --    0.29007   0.30073   0.31059   0.31203   0.31484
 Alpha virt. eigenvalues --    0.31846   0.32519   0.32694   0.32866   0.33252
 Alpha virt. eigenvalues --    0.33758   0.34193   0.34673   0.34976   0.35461
 Alpha virt. eigenvalues --    0.36015   0.36141   0.36213   0.36479   0.37216
 Alpha virt. eigenvalues --    0.38114   0.38478   0.38683   0.39263   0.39471
 Alpha virt. eigenvalues --    0.39807   0.40728   0.41192   0.41532   0.41713
 Alpha virt. eigenvalues --    0.41820   0.42001   0.42103   0.42871   0.43544
 Alpha virt. eigenvalues --    0.44425   0.44954   0.45551   0.47069   0.47542
 Alpha virt. eigenvalues --    0.48312   0.48813   0.49174   0.50741   0.51339
 Alpha virt. eigenvalues --    0.51415   0.51628   0.51775   0.51992   0.52289
 Alpha virt. eigenvalues --    0.52297   0.52617   0.52940   0.52955   0.53473
 Alpha virt. eigenvalues --    0.53581   0.53883   0.54026   0.54574   0.54706
 Alpha virt. eigenvalues --    0.54904   0.55222   0.55538   0.55881   0.55976
 Alpha virt. eigenvalues --    0.56101   0.56753   0.56925   0.57195   0.57361
 Alpha virt. eigenvalues --    0.57472   0.57557   0.57653   0.58068   0.58423
 Alpha virt. eigenvalues --    0.58496   0.58697   0.58777   0.58829   0.58932
 Alpha virt. eigenvalues --    0.58955   0.59032   0.59234   0.59275   0.59333
 Alpha virt. eigenvalues --    0.59360   0.60076   0.60322   0.60351   0.60761
 Alpha virt. eigenvalues --    0.60798   0.60909   0.61165   0.61181   0.61579
 Alpha virt. eigenvalues --    0.61891   0.62052   0.62360   0.62403   0.62974
 Alpha virt. eigenvalues --    0.63175   0.63426   0.63501   0.63915   0.63988
 Alpha virt. eigenvalues --    0.64321   0.64518   0.64585   0.64602   0.65104
 Alpha virt. eigenvalues --    0.65164   0.65218   0.65426   0.65456   0.65523
 Alpha virt. eigenvalues --    0.65716   0.66052   0.66152   0.66471   0.66656
 Alpha virt. eigenvalues --    0.66699   0.66764   0.67165   0.67815   0.67963
 Alpha virt. eigenvalues --    0.68051   0.68280   0.68776   0.69226   0.69576
 Alpha virt. eigenvalues --    0.69795   0.70338   0.70727   0.71825   0.72567
 Alpha virt. eigenvalues --    0.72648   0.73725   0.74405   0.74728   0.75254
 Alpha virt. eigenvalues --    0.75549   0.75815   0.76206   0.78766   0.78785
 Alpha virt. eigenvalues --    0.79239   0.79509   0.79674   0.80354   0.80722
 Alpha virt. eigenvalues --    0.81116   0.81578   0.81788   0.81976   0.82039
 Alpha virt. eigenvalues --    0.82630   0.83041   0.83346   0.83808   0.83917
 Alpha virt. eigenvalues --    0.84409   0.84550   0.84658   0.84825   0.85037
 Alpha virt. eigenvalues --    0.85173   0.85455   0.85533   0.85772   0.86044
 Alpha virt. eigenvalues --    0.86238   0.86386   0.86557   0.86727   0.86976
 Alpha virt. eigenvalues --    0.87132   0.87257   0.87383   0.87438   0.87694
 Alpha virt. eigenvalues --    0.87762   0.88273   0.88384   0.88518   0.88958
 Alpha virt. eigenvalues --    0.89119   0.89434   0.89832   0.90763   0.90986
 Alpha virt. eigenvalues --    0.91149   0.91515   0.91578   0.91648   0.91966
 Alpha virt. eigenvalues --    0.92230   0.92607   0.92931   0.93153   0.93312
 Alpha virt. eigenvalues --    0.93634   0.94025   0.94432   0.94665   0.95344
 Alpha virt. eigenvalues --    0.95669   0.96165   0.96541   0.97110   0.97362
 Alpha virt. eigenvalues --    0.97514   0.98131   0.99701   1.01810   1.02449
 Alpha virt. eigenvalues --    1.02808   1.03062   1.03334   1.03456   1.03712
 Alpha virt. eigenvalues --    1.03954   1.04322   1.04505   1.04884   1.05216
 Alpha virt. eigenvalues --    1.05567   1.06021   1.06166   1.06715   1.07026
 Alpha virt. eigenvalues --    1.07222   1.07617   1.08002   1.08528   1.08599
 Alpha virt. eigenvalues --    1.09108   1.09797   1.10150   1.10338   1.10671
 Alpha virt. eigenvalues --    1.10837   1.11223   1.11897   1.12503   1.13291
 Alpha virt. eigenvalues --    1.14844   1.16925   1.17181   1.17925   1.18707
 Alpha virt. eigenvalues --    1.18790   1.19108   1.20189   1.20916   1.21024
 Alpha virt. eigenvalues --    1.21470   1.22395   1.23492   1.23656   1.24410
 Alpha virt. eigenvalues --    1.25854   1.26519   1.27489   1.28101   1.28500
 Alpha virt. eigenvalues --    1.28766   1.28825   1.29146   1.29421   1.29876
 Alpha virt. eigenvalues --    1.29957   1.30045   1.30193   1.30468   1.30625
 Alpha virt. eigenvalues --    1.30700   1.30845   1.31106   1.31162   1.31317
 Alpha virt. eigenvalues --    1.31423   1.31483   1.31737   1.32077   1.32182
 Alpha virt. eigenvalues --    1.32264   1.32477   1.32566   1.32739   1.32817
 Alpha virt. eigenvalues --    1.32828   1.33079   1.33294   1.33723   1.33888
 Alpha virt. eigenvalues --    1.34125   1.34687   1.34930   1.36634   1.36844
 Alpha virt. eigenvalues --    1.37266   1.37395   1.37550   1.38583   1.39938
 Alpha virt. eigenvalues --    1.40379   1.40782   1.40887   1.41382   1.42037
 Alpha virt. eigenvalues --    1.42947   1.43452   1.43943   1.44229   1.44480
 Alpha virt. eigenvalues --    1.44924   1.45367   1.45701   1.45931   1.46505
 Alpha virt. eigenvalues --    1.46847   1.47165   1.48043   1.48139   1.48636
 Alpha virt. eigenvalues --    1.48648   1.48954   1.49234   1.49624   1.49936
 Alpha virt. eigenvalues --    1.50390   1.50629   1.51436   1.51456   1.51607
 Alpha virt. eigenvalues --    1.51832   1.51946   1.52373   1.52586   1.53344
 Alpha virt. eigenvalues --    1.57425   1.61415   1.62656   1.67867   1.73978
 Alpha virt. eigenvalues --    1.75043   1.75332   1.75757   1.75805   1.76236
 Alpha virt. eigenvalues --    1.76359   1.76498   1.76583   1.76623   1.76691
 Alpha virt. eigenvalues --    1.76794   1.76956   1.77138   1.77372   1.77433
 Alpha virt. eigenvalues --    1.77971   1.78111   1.78154   1.78381   1.78517
 Alpha virt. eigenvalues --    1.78790   1.79001   1.79456   1.83048   1.83140
 Alpha virt. eigenvalues --    1.84507   1.85654   1.85949   1.86011   1.86271
 Alpha virt. eigenvalues --    1.86272   1.86822   1.87925   1.88283   1.88915
 Alpha virt. eigenvalues --    1.89624   1.89779   1.90614   1.91624   1.91956
 Alpha virt. eigenvalues --    1.92126   1.92607   1.92616   1.92745   1.92829
 Alpha virt. eigenvalues --    1.92944   1.93143   1.93686   1.93833   1.93887
 Alpha virt. eigenvalues --    1.94368   1.94427   1.94532   1.94703   1.94841
 Alpha virt. eigenvalues --    1.95751   1.95919   1.96008   1.96231   1.96533
 Alpha virt. eigenvalues --    1.97216   1.97349   1.98144   1.98609   1.98713
 Alpha virt. eigenvalues --    1.98846   2.00436   2.02142   2.02265   2.02818
 Alpha virt. eigenvalues --    2.03257   2.03386   2.03572   2.04395   2.04768
 Alpha virt. eigenvalues --    2.05542   2.05899   2.06183   2.07059   2.07522
 Alpha virt. eigenvalues --    2.07859   2.08197   2.08743   2.08900   2.09799
 Alpha virt. eigenvalues --    2.10212   2.10626   2.10693   2.11211   2.11441
 Alpha virt. eigenvalues --    2.12112   2.12587   2.13050   2.13996   2.14389
 Alpha virt. eigenvalues --    2.14647   2.14962   2.15565   2.15673   2.16334
 Alpha virt. eigenvalues --    2.16484   2.17584   2.18009   2.18182   2.18247
 Alpha virt. eigenvalues --    2.18492   2.19496   2.19674   2.20220   2.20506
 Alpha virt. eigenvalues --    2.20982   2.21311   2.21818   2.22354   2.22377
 Alpha virt. eigenvalues --    2.22576   2.23458   2.24157   2.24297   2.24524
 Alpha virt. eigenvalues --    2.24884   2.25736   2.26221   2.27176   2.27404
 Alpha virt. eigenvalues --    2.28363   2.28802   2.29445   2.30027   2.30796
 Alpha virt. eigenvalues --    2.31397   2.32318   2.32773   2.33387   2.34010
 Alpha virt. eigenvalues --    2.34390   2.35081   2.36003   2.36669   2.36790
 Alpha virt. eigenvalues --    2.37302   2.37854   2.38024   2.38229   2.39899
 Alpha virt. eigenvalues --    2.41209   2.41567   2.41616   2.42659   2.44059
 Alpha virt. eigenvalues --    2.44265   2.44601   2.44794   2.45083   2.45577
 Alpha virt. eigenvalues --    2.46393   2.46532   2.46896   2.47043   2.47395
 Alpha virt. eigenvalues --    2.47589   2.48171   2.48254   2.48326   2.48628
 Alpha virt. eigenvalues --    2.48672   2.48820   2.49104   2.49553   2.49979
 Alpha virt. eigenvalues --    2.50277   2.50419   2.51030   2.51274   2.51419
 Alpha virt. eigenvalues --    2.51535   2.51999   2.52107   2.52384   2.52724
 Alpha virt. eigenvalues --    2.52770   2.53532   2.53596   2.53755   2.54021
 Alpha virt. eigenvalues --    2.54500   2.55034   2.55260   2.55663   2.55775
 Alpha virt. eigenvalues --    2.55823   2.56386   2.56433   2.56686   2.57089
 Alpha virt. eigenvalues --    2.57729   2.57818   2.57948   2.58249   2.58521
 Alpha virt. eigenvalues --    2.58894   2.59596   2.59824   2.60039   2.60229
 Alpha virt. eigenvalues --    2.60690   2.60867   2.61189   2.61327   2.61549
 Alpha virt. eigenvalues --    2.62401   2.62592   2.62891   2.63464   2.63683
 Alpha virt. eigenvalues --    2.63819   2.64057   2.64223   2.65010   2.65446
 Alpha virt. eigenvalues --    2.65932   2.66154   2.66576   2.67061   2.67349
 Alpha virt. eigenvalues --    2.67613   2.67777   2.68011   2.68381   2.68580
 Alpha virt. eigenvalues --    2.69074   2.69253   2.69645   2.69740   2.70079
 Alpha virt. eigenvalues --    2.70181   2.70281   2.70551   2.70630   2.70949
 Alpha virt. eigenvalues --    2.71386   2.71463   2.71803   2.71927   2.72032
 Alpha virt. eigenvalues --    2.72477   2.73405   2.74209   2.75576   2.76148
 Alpha virt. eigenvalues --    2.78422   2.78655   2.79023   2.79810   2.82321
 Alpha virt. eigenvalues --    2.82752   2.83871   2.84575   2.85290   2.86457
 Alpha virt. eigenvalues --    2.86511   2.86721   2.87656   2.88903   2.89432
 Alpha virt. eigenvalues --    2.89596   2.90670   2.91026   2.91100   2.91234
 Alpha virt. eigenvalues --    2.91738   2.92148   2.92521   2.92805   2.93244
 Alpha virt. eigenvalues --    2.93692   2.94442   2.94786   2.95522   2.96048
 Alpha virt. eigenvalues --    2.96287   2.97002   2.97306   2.97713   2.98377
 Alpha virt. eigenvalues --    2.98909   2.99047   2.99706   2.99772   2.99880
 Alpha virt. eigenvalues --    3.00108   3.00453   3.00967   3.01179   3.02925
 Alpha virt. eigenvalues --    3.03362   3.05357   3.10967   3.16007   3.16242
 Alpha virt. eigenvalues --    3.16472   3.20242   3.27986   3.28048   3.32573
 Alpha virt. eigenvalues --    3.32884   3.32973   3.33121   3.33299   3.33315
 Alpha virt. eigenvalues --    3.33734   3.34858   3.35420   3.35516   3.35610
 Alpha virt. eigenvalues --    3.36412   3.36552   3.37433   3.38578   3.40094
 Alpha virt. eigenvalues --    3.40868   3.41245   3.44050   3.44615   3.45209
 Alpha virt. eigenvalues --    3.45729   3.49064   3.50441   3.52646   3.52761
 Alpha virt. eigenvalues --    3.53035   3.54062   3.54873   3.54970   3.56150
 Alpha virt. eigenvalues --    3.56174   3.57540   3.58963   3.60018   3.60939
 Alpha virt. eigenvalues --    3.61365   3.62505   3.63638   3.64197   3.65492
 Alpha virt. eigenvalues --    3.65944   3.66431   3.66933   3.70758   3.71056
 Alpha virt. eigenvalues --    3.72891   3.74367   3.76262   3.79251   4.10857
 Alpha virt. eigenvalues --    4.11693   4.12044   4.12274   4.13570   4.13754
 Alpha virt. eigenvalues --    4.13765   4.13831   4.13960   4.14045   4.14249
 Alpha virt. eigenvalues --    4.14376   4.14653   4.15063   4.15379   4.15719
 Alpha virt. eigenvalues --    4.16244   4.17195   4.17833   4.18447   4.19272
 Alpha virt. eigenvalues --    4.20274   4.20948   4.21966   4.25790   4.26045
 Alpha virt. eigenvalues --    4.28789   4.30750   4.32121   4.34210   4.36189
 Alpha virt. eigenvalues --    4.38191   4.40229   4.43143   4.45726   4.48241
 Alpha virt. eigenvalues --    4.50744   4.53588   4.56411   4.58881   4.61453
 Alpha virt. eigenvalues --    4.64069   4.66717   4.68618   4.70568   4.72389
 Alpha virt. eigenvalues --    4.73901   4.74888   4.76075   4.76650
          Condensed to atoms (all electrons):
 Mulliken charges:
               1
     1  C   -0.251632
     2  C   -0.033672
     3  C   -0.077183
     4  C   -0.076544
     5  C   -0.083823
     6  C   -0.074995
     7  C   -0.056403
     8  C   -0.106795
     9  C   -0.081190
    10  C   -0.078539
    11  C   -0.110327
    12  C   -0.052410
    13  C   -0.052853
    14  C   -0.110521
    15  C   -0.079543
    16  C   -0.080668
    17  C   -0.106946
    18  C   -0.056409
    19  C   -0.075976
    20  C   -0.083159
    21  C   -0.079410
    22  C   -0.080021
    23  C   -0.078683
    24  C   -0.080784
    25  C   -0.081572
    26  C   -0.077516
    27  C   -0.055845
    28  C   -0.105818
    29  C   -0.075573
    30  C   -0.086118
    31  C   -0.083199
    32  C   -0.078433
    33  C   -0.078493
    34  C   -0.083276
    35  C   -0.086174
    36  C   -0.075360
    37  C   -0.105742
    38  C   -0.055772
    39  C   -0.077723
    40  C   -0.081417
    41  C   -0.080951
    42  C   -0.078495
    43  C   -0.080579
    44  C   -0.079402
    45  C   -0.079552
    46  C   -0.080561
    47  C   -0.077067
[...]
 093774,-0.00040413,0.00114176,0.00021898,-0.00042592,0.00158021,0.0027
 3959,0.00823044,0.02349382,-0.00248881,-0.00227594,0.08164786,-0.06892
 390,0.00663097,-0.00000009,-0.00000003,0.00000008,0.,-0.00000041,0.000
 00022,0.,-0.00000008,0.00000009,0.00000007,-0.00000047,0.00000021,0.,-
 0.00000012,0.00000009,0.00000008,-0.00000052,0.00000023,-0.00000003,-0
 .00000014,0.00000009,0.00000029,-0.00000064,0.00000025,-0.00000024,0.0
 0000019,-0.00000004,0.00000062,0.00000011,-0.00000016,-0.00000027,0.00
 000001,0.00000005,0.00000016,-0.00000050,0.00000020,-0.00000007,-0.000
 00014,0.00000009,0.00000036,-0.00000074,0.00000029,-0.00000021,0.00000
 029,-0.00000008,0.00000083,0.00000019,-0.00000022,-0.00000032,-0.00000
 005,0.00000010,0.00000022,-0.00000064,0.00000027,-0.00000005,-0.000000
 26,0.00000015,0.00000021,-0.00000086,0.00000040,0.,-0.00000033,0.00000
 017,0.00000022,-0.00000100,0.00000046,0.00000002,-0.00000040,0.0000002
 2,0.00000025,-0.00000118,0.00000054,0.00000001,-0.00000050,0.00000025,
 0.00000027,-0.00000139,0.00000069,-0.00000002,-0.00000053,0.00000044,0
 .00000076,-0.00000181,0.00000080,-0.00000046,0.00000044,-0.00000035,0.
 00000182,0.00000044,-0.00000055,-0.00000057,-0.00000004,0.00000058,0.0
 0000119,-0.00000173,0.00000094,-0.00000041,0.00000059,-0.00000040,0.00
 000234,0.00000042,-0.00000079,-0.00000081,-0.00000007,0.00000072,0.000
 00169,-0.00000214,0.00000141,-0.00000045,0.00000091,-0.00000053,0.0000
 0263,0.00000094,-0.00000137,0.00000104,0.00000151,-0.00000036,0.000003
 51,0.00000150,-0.00000228,0.00000068,-0.00000005,-0.00000245,0.0000049
 1,0.00000250,-0.00000256,0.00000494,0.00001177,0.00000886,0.00000614,0
 .00000329,-0.00000492,-0.00001438,-0.00003403,-0.00003430,0.00000940,0
 .00002181,-0.00000050,-0.00003173,0.00007099,0.00008544,0.00014028,-0.
 00008530,-0.00025137,-0.00144858,-0.00260207,-0.00375683,-0.01321847,0
 .00619204,0.00115106,-0.09319012,0.06575705,-0.00000100,0.00000057,-0.
 00000010,0.00000057,-0.00000133,0.00000051,-0.00000041,0.00000112,-0.0
 0000052,0.00000023,-0.00000137,0.00000061,-0.00000019,0.00000110,-0.00
 000050,0.00000018,-0.00000144,0.00000063,-0.00000015,0.00000102,-0.000
 00045,0.00000014,-0.00000180,0.00000078,-0.00000023,0.00000121,-0.0000
 0050,0.00000148,0.00000111,-0.00000077,-0.00000126,-0.00000056,0.00000
 047,0.00000032,-0.00000164,0.00000070,-0.00000033,0.00000119,-0.000000
 50,0.00000022,-0.00000241,0.00000106,-0.00000035,0.00000177,-0.0000007
 7,0.00000207,0.00000154,-0.00000108,-0.00000188,-0.00000088,0.00000072
 ,0.00000049,-0.00000219,0.00000094,-0.00000052,0.00000177,-0.00000076,
 0.00000031,-0.00000253,0.00000109,-0.00000031,0.00000196,-0.00000087,0
 .00000010,-0.00000289,0.00000132,-0.00000010,0.00000218,-0.00000106,-0
 .00000016,-0.00000326,0.00000152,0.00000018,0.00000243,-0.00000124,-0.
 00000041,-0.00000352,0.00000189,0.00000054,0.00000246,-0.00000137,-0.0
 0000116,-0.00000591,0.00000265,0.00000043,0.00000331,-0.00000156,0.000
 00379,0.00000518,-0.00000314,-0.00000275,-0.00000273,0.00000156,-0.000
 00078,-0.00000692,0.00000412,-0.00000027,0.00000431,-0.00000256,0.0000
 0512,0.00000546,-0.00000569,-0.00000397,-0.00000291,0.00000292,-0.0000
 0047,-0.00000791,0.00000760,-0.00000128,0.00000440,-0.00000407,0.00000
 375,0.00000366,-0.00000829,-0.00000376,-0.00000483,0.00000658,0.000005
 64,0.00001478,-0.00000399,-0.00000425,-0.00001134,0.00000845,-0.000010
 68,-0.00001462,-0.00004811,-0.00000513,-0.00001353,0.00002421,0.000050
 36,0.00018684,0.00010139,-0.00007415,-0.00006980,0.00002460,-0.0002920
 7,-0.00042346,-0.00091288,-0.00089085,-0.00003491,0.00059969,0.0020359
 8,0.00768148,0.00317902,-0.01929540,0.00628957,0.00524295,0.02783437,0
 .00545630,-0.04715112,0.00000005,0.,0.00000001,-0.00000002,0.00000021,
 -0.00000007,0.,0.00000006,0.,-0.00000004,0.00000025,-0.00000010,0.,0.0
 0000007,-0.00000001,-0.00000005,0.00000029,-0.00000012,0.00000002,0.00
 000008,-0.00000003,-0.00000016,0.00000036,-0.00000013,0.00000012,-0.00
 000010,0.00000003,-0.00000039,-0.00000008,0.00000011,0.00000015,0.,-0.
 00000002,-0.00000010,0.00000031,-0.00000012,0.00000004,0.00000011,-0.0
 0000005,-0.00000020,0.00000044,-0.00000016,0.00000013,-0.00000014,0.00
 000006,-0.00000050,-0.00000009,0.00000014,0.00000019,0.00000002,-0.000
 00003,-0.00000013,0.00000041,-0.00000016,0.00000003,0.00000017,-0.0000
 0006,-0.00000011,0.00000055,-0.00000022,0.,0.00000023,-0.00000009,-0.0
 0000012,0.00000065,-0.00000026,0.,0.00000027,-0.00000010,-0.00000013,0
 .00000076,-0.00000031,0.,0.00000031,-0.00000008,-0.00000015,0.00000086
 ,-0.00000036,0.00000002,0.00000031,-0.00000019,-0.00000045,0.00000102,
 -0.00000036,0.00000026,-0.00000028,0.00000033,-0.00000115,-0.00000019,
 0.00000042,0.00000042,0.00000002,-0.00000018,-0.00000072,0.00000102,-0
 .00000039,0.00000032,-0.00000029,0.00000043,-0.00000152,-0.00000010,0.
 00000064,0.00000068,0.00000018,-0.00000007,-0.00000108,0.00000140,-0.0
 0000059,0.00000038,-0.00000051,0.00000047,-0.00000160,-0.00000023,0.00
 000118,-0.00000017,0.00000010,0.00000121,-0.00000223,-0.00000045,0.000
 00191,-0.00000098,-0.00000168,-0.00000017,-0.00000311,-0.00000013,0.00
 000310,0.00000357,0.00000953,0.00001173,-0.00000491,-0.00000152,0.0000
 0404,-0.00001197,-0.00003448,-0.00003502,-0.00000334,0.00000564,0.0000
 2050,0.00008577,0.00004431,0.00006789,-0.00038019,-0.00012098,-0.00001
 936,-0.00138910,-0.00384175,-0.00257078,0.01820374,-0.00609597,0.00146
 989,-0.02584308,-0.00902294,0.03997935,-0.26984204,0.12465459,-0.01451
 455,-0.01867478,0.01602590,-0.00325088,-0.00137841,-0.00303688,0.00367
 072,-0.00074457,0.00106003,-0.00031011,-0.00018942,-0.00040764,-0.0000
 3510,-0.00012418,0.00009886,-0.00003636,0.00002199,-0.00003940,0.00006
 693,-0.00005754,-0.00001359,0.00001723,0.00003958,0.00001617,-0.000024
 65,-0.00000822,0.00003798,-0.00001580,0.00000649,-0.00003788,0.0000170
 3,-0.00001001,0.00001275,-0.00000427,0.00000761,-0.00001919,0.00000752
 ,-0.00001916,-0.00001150,0.00000870,0.00001955,0.00001665,-0.00001130,
 -0.00000134,0.00001794,-0.00000820,-0.00000025,-0.00002337,0.00001089,
 -0.00000155,0.00000869,-0.00000382,0.00000138,-0.00001340,0.00000595,-
 0.00000182,0.00000850,-0.00000360,0.00000154,-0.00001169,0.00000509,-0
 .00000223,0.00000732,-0.00000301,0.00000191,-0.00001007,0.00000435,-0.
 00000259,0.00000625,-0.00000258,0.00000234,-0.00000850,0.00000367,-0.0
 0000301,0.00000555,-0.00000194,0.00000299,-0.00000721,0.00000279,-0.00
 000769,-0.00000425,0.00000363,0.00000817,0.00000544,-0.00000449,-0.000
 00143,0.00000750,-0.00000423,0.00000110,-0.00000837,0.00000509,-0.0000
 0478,-0.00000297,0.00000384,0.00000568,0.00000455,-0.00000551,-0.00000
 066,0.00000423,-0.00000380,-0.00000003,-0.00000599,0.00000589,-0.00000
 239,-0.00000203,0.00000320,0.00000398,0.00000407,-0.00000610,-0.000001
 75,-0.00000239,0.00000284,0.00000281,0.00000316,-0.00000391,-0.0000022
 3,-0.00000207,0.00000294,0.00000303,0.00000227,-0.00000363,-0.00000267
 ,-0.00000152,0.00000255,0.00000332,0.00000183,-0.00000310,-0.00000263,
 -0.00000120,0.00000220,0.00000316,0.00000164,-0.00000288,-0.00000266,-
 0.00000106,0.00000208,0.00000316,0.00000147,-0.00000267,-0.00000285,-0
 .00000077,0.00000203,0.00000335,0.00000106,-0.00000229,-0.00000305,0.0
 0000089,0.00000026,0.00371351,-0.00270031,0.00098019,0.00081239,-0.000
 62684,-0.00108062,0.00015859,0.00005377,-0.00010284,0.00000701,-0.0000
 5463,0.00004887,0.00001440,0.00001632,-0.00000553,-0.00000010,-0.00000
 514,-0.00001043,-0.00000061,0.00000824,-0.00000347,0.00000353,0.000002
 75,0.00000259,-0.00001011,-0.00000147,0.00000290,0.00000083,-0.0000040
 0,0.00000118,-0.00000306,0.00000630,-0.00000219,0.00000045,0.00000206,
 -0.00000117,-0.00000142,0.00000430,-0.00000165,0.00000153,0.00000084,-
 0.00000055,-0.00000446,-0.00000114,0.00000137,0.00000063,-0.00000163,0
 .00000070,-0.00000171,0.00000400,-0.00000151,0.00000008,0.00000151,-0.
 00000066,-0.00000060,0.00000334,-0.00000142,0.,0.00000129,-0.00000059,
 -0.00000051,0.00000286,-0.00000120,0.00000003,0.00000112,-0.00000050,-
 0.00000043,0.00000244,-0.00000104,0.00000004,0.00000098,-0.00000043,-0
 .00000043,0.00000207,-0.00000086,0.00000009,0.00000075,-0.00000044,-0.
 00000052,0.00000150,-0.00000064,0.00000063,0.00000007,-0.00000017,-0.0
 0000191,-0.00000051,0.00000070,0.00000028,-0.00000061,0.00000024,-0.00
 000083,0.00000125,-0.00000059,0.00000060,0.00000005,-0.00000004,-0.000
 00155,-0.00000032,0.00000066,0.00000024,-0.00000054,0.00000012,-0.0000
 0071,0.00000102,-0.00000063,0.00000062,0.00000005,0.,-0.00000143,-0.00
 000035,0.00000089,-0.00000021,-0.00000028,0.00000027,-0.00000086,-0.00
 000043,0.00000076,-0.00000020,-0.00000015,0.00000031,-0.00000071,-0.00
 000033,0.00000068,-0.00000016,-0.00000013,0.00000022,-0.00000063,-0.00
 000034,0.00000061,-0.00000012,-0.00000012,0.00000015,-0.00000060,-0.00
 000033,0.00000059,-0.00000009,-0.00000008,0.00000009,-0.00000056,-0.00
 000033,0.00000053,-0.00000009,-0.00000009,0.00000005,-0.00000040,-0.00
 000034,0.00000042,0.00000004,-0.00000013,0.00000007,-0.00000010,0.0000
 0025,-0.00000020,0.28627235,0.12871079,-0.12686209,0.02080668,-0.01360
 424,0.00993263,-0.00021354,-0.00114235,0.00076970,0.00511868,-0.000287
 33,0.00076533,-0.00019283,-0.00034477,-0.00037926,-0.00042069,0.000039
 64,0.00005232,-0.00006517,-0.00004183,0.00002624,0.00013173,0.00002976
 ,0.00001166,-0.00000856,-0.00001830,0.00001303,-0.00002883,0.00000733,
 -0.00001548,0.00000633,-0.00001427,-0.00000352,0.00000605,0.00001009,0
 .00000461,-0.00000448,-0.00000851,-0.00000307,0.00000315,0.00000530,0.
 00000079,-0.00000156,-0.00000217,0.00000529,-0.00000220,0.00000187,-0.
 00000294,0.00000094,-0.00000368,-0.00000178,0.00000137,0.00000274,0.00
 000148,-0.00000121,-0.00000251,-0.00000124,0.00000097,0.00000182,0.000
 00107,-0.00000094,-0.00000162,-0.00000099,0.00000077,0.00000123,0.0000
 0084,-0.00000066,-0.00000103,-0.00000078,0.00000051,0.00000075,0.00000
 068,-0.00000041,-0.00000060,-0.00000062,0.00000033,0.00000029,0.000000
 56,-0.00000034,-0.00000033,-0.00000056,0.00000037,-0.00000012,0.000000
 07,0.,0.00000027,0.00000038,-0.00000025,-0.00000003,-0.00000014,0.0000
 0004,-0.00000011,-0.00000032,0.00000023,-0.00000009,-0.00000002,0.0000
 0009,0.00000016,0.00000014,-0.00000014,-0.00000001,0.,-0.00000004,-0.0
 0000003,-0.00000013,0.00000017,-0.00000006,-0.00000012,0.00000017,0.00
 000005,0.00000013,-0.00000012,-0.00000002,-0.00000005,0.00000013,0.000
 00011,0.00000003,-0.00000005,-0.00000013,0.00000002,0.00000003,0.00000
 018,0.00000007,-0.00000002,-0.00000013,0.00000002,0.00000001,0.0000001
 1,0.00000005,-0.00000006,-0.00000005,-0.00000002,0.00000005,0.00000002
 ,0.00000006,-0.00000003,-0.00000001,-0.00000006,0.00000005,0.,0.000000
 05,-0.00000003,-0.00000004,-0.00000014,0.00000002,0.00000012,-0.000000
 05,0.,-0.00000006,0.00000002,0.00000001,0.02237406,-0.00866641,0.00103
 929,-0.00033068,-0.00010065,-0.00304179,-0.00039737,0.00026858,-0.0001
 8173,0.00008726,0.00001727,0.00004187,-0.00000481,0.00001350,0.0000062
 6,-0.00000424,-0.00001333,-0.00002605,-0.00000202,0.00000323,-0.000000
 58,0.00000303,0.00000410,0.00000903,-0.00000167,0.00000114,0.00000085,
 0.00000124,-0.00000017,-0.00000145,-0.00000133,0.00000147,-0.00000010,
 0.00000016,0.,-0.00000043,-0.00000040,0.00000065,-0.00000004,0.0000003
 4,0.00000001,0.00000018,-0.00000048,0.00000013,0.00000013,0.00000041,0
 .00000008,0.00000007,-0.00000034,0.00000047,-0.00000008,0.00000006,0.0
 0000007,0.00000002,-0.00000009,0.00000025,-0.00000004,0.00000002,0.000
 00007,0.00000002,-0.00000007,0.00000018,-0.00000005,0.,0.00000004,0.00
 000001,-0.00000005,0.00000016,-0.00000005,0.,0.,0.,-0.00000003,0.00000
 013,-0.00000004,0.,-0.00000002,0.00000002,-0.00000004,0.00000007,-0.00
 000004,0.00000006,0.00000005,-0.00000003,-0.00000003,0.00000008,-0.000
 00004,0.00000005,-0.00000001,0.,-0.00000007,0.00000010,-0.00000005,0.0
 0000004,0.00000004,-0.00000004,-0.00000003,0.00000003,-0.00000004,0.00
 000003,-0.00000001,-0.00000002,-0.00000005,0.00000008,-0.00000005,0.00
 000002,0.00000002,-0.00000004,0.,0.00000002,-0.00000003,-0.00000001,-0
 .00000002,-0.00000002,-0.00000004,-0.00000003,0.00000002,0.,-0.0000000
 3,-0.00000001,-0.00000004,-0.00000005,0.,-0.00000001,-0.00000003,0.,-0
 .00000002,-0.00000003,0.,0.00000001,0.,0.,-0.00000001,-0.00000002,-0.0
 0000001,0.00000001,0.00000002,-0.00000001,0.,0.,-0.00000001,0.00000002
 ,0.00000004,0.,-0.00000002,0.00000004,0.,0.00000003,0.00000005,-0.0000
 0002,-0.00000012,0.00000005,-0.00000001,-0.13506092,0.12415467,-0.0163
 5819,0.02152331,-0.03800836,0.01022169,-0.00544754,0.00484932,0.002808
 65,0.00545366,0.00860726,0.00030270,-0.00043080,0.00037202,-0.00006353
 ,-0.00040966,-0.00124073,-0.00000965,-0.00007569,-0.00003958,0.0000680
 7,0.00013129,0.00022794,-0.00000262,-0.00000096,0.00000519,-0.00000876
 ,-0.00003484,-0.00003995,-0.00000171,0.00000081,0.00000113,0.00000603,
 0.00001015,-0.00000170,-0.00000304,-0.00000493,0.00000148,0.00000262,0
 .00000500,-0.00000227,0.00000086,0.00000139,-0.00000142,-0.00000253,-0
 .00000552,0.00000269,-0.00000065,-0.00000196,0.00000076,0.00000164,0.0
 0000481,-0.00000289,-0.00000098,-0.00000232,0.00000107,0.00000085,0.00
 000288,-0.00000165,-0.00000053,-0.00000211,0.00000089,0.00000044,0.000
 00246,-0.00000135,-0.00000018,-0.00000176,0.00000072,0.00000012,0.0000
 0208,-0.00000109,0.00000010,-0.00000146,0.00000059,-0.00000014,0.00000
 172,-0.00000089,0.00000035,-0.00000125,0.00000042,-0.00000035,0.000001
 49,-0.00000068,0.00000136,0.00000071,-0.00000070,-0.00000152,-0.000001
 17,0.00000087,0.00000022,-0.00000129,0.00000070,-0.00000013,0.00000160
 ,-0.00000105,0.00000086,0.00000050,-0.00000073,-0.00000107,-0.00000091
 ,0.00000104,0.00000009,-0.00000076,0.00000066,0.00000004,0.00000112,-0
 .00000116,0.00000043,0.00000036,-0.00000061,-0.00000074,-0.00000082,0.
 00000116,0.00000032,0.00000048,-0.00000058,-0.00000054,-0.00000062,0.0
 0000073,0.00000043,0.00000036,-0.00000056,-0.00000060,-0.00000043,0.00
 000067,0.00000051,0.00000025,-0.00000048,-0.00000064,-0.00000034,0.000
 00056,0.00000048,0.00000020,-0.00000041,-0.00000057,-0.00000031,0.0000
 0051,0.00000047,0.00000018,-0.00000038,-0.00000056,-0.00000028,0.00000
 047,0.00000047,0.00000013,-0.00000037,-0.00000064,-0.00000016,0.000000
 39,0.00000052,-0.00000021,-0.00000004,-0.01042142,0.00546834,0.0016647
 0,-0.00121498,-0.00298954,-0.00534482,0.00010218,-0.00026157,-0.000184
 53,-0.00001562,0.00006695,0.00011561,0.00000411,0.00000253,0.00002350,
 -0.00001078,-0.00002589,-0.00005853,0.00000124,-0.00000238,0.00000204,
 0.00000244,0.00000912,0.00002062,0.00000302,0.00000082,0.00000148,-0.0
 0000120,-0.00000049,-0.00000236,0.00000129,-0.00000140,0.00000125,-0.0
 0000030,-0.00000074,-0.00000042,0.00000051,-0.00000085,0.00000076,-0.0
 0000032,0.00000012,0.00000061,0.00000105,0.00000027,-0.00000005,-0.000
 00022,0.00000046,0.00000026,0.00000049,-0.00000082,0.00000053,0.,-0.00
 000019,0.00000030,0.00000017,-0.00000063,0.00000044,0.00000002,-0.0000
 0016,0.00000024,0.00000014,-0.00000052,0.00000034,0.00000001,-0.000000
 13,0.00000018,0.00000012,-0.00000044,0.00000029,0.,-0.00000012,0.00000
 014,0.00000011,-0.00000038,0.00000023,0.,-0.00000009,0.00000014,0.0000
 0012,-0.00000027,0.00000017,-0.00000013,-0.00000002,0.00000010,0.00000
 036,0.00000007,-0.00000007,-0.00000006,0.00000015,0.,0.00000018,-0.000
 00023,0.00000015,-0.00000012,0.,0.00000005,0.00000031,0.00000006,-0.00
 000009,-0.00000006,0.00000012,0.00000001,0.00000016,-0.00000019,0.0000
 0015,-0.00000012,0.00000002,0.00000002,0.00000029,0.00000007,-0.000000
 15,0.00000004,0.00000007,-0.00000003,0.00000018,0.00000010,-0.00000014
 ,0.00000004,0.00000005,-0.00000005,0.00000014,0.00000008,-0.00000012,0
 .00000004,0.00000004,-0.00000004,0.00000012,0.00000008,-0.00000010,0.0
 0000002,0.00000004,-0.00000001,0.00000012,0.00000007,-0.00000010,0.000
 00002,0.00000003,0.,0.00000010,0.00000006,-0.00000008,0.00000004,0.000
 00003,0.,0.00000010,0.00000006,-0.00000006,0.00000002,0.00000004,0.,0.
 00000006,-0.00000005,0.00000004,0.01458552,-0.02298159,0.02902782\\0.0
 0000041,-0.00000127,0.00000062,0.00000152,0.00000159,-0.00000091,-0.00
 000003,-0.00000265,0.00000127,0.00000096,0.00000260,-0.00000132,-0.000
 00169,-0.00000253,0.00000145,0.00000222,0.00000265,-0.00000167,-0.0000
 0303,-0.00000271,0.00000170,0.00000264,0.00000087,-0.00000097,-0.00000
 138,0.00000255,-0.00000104,0.00000144,-0.00000268,0.00000093,-0.000004
 38,-0.00000110,0.00000110,0.00000490,0.00000296,-0.00000271,-0.0000053
 0,-0.00000315,0.00000228,0.00000337,0.00000164,-0.00000134,-0.00000104
 ,0.00000186,-0.00000118,0.00000014,-0.00000197,0.00000082,-0.00000126,
 -0.00000134,0.00000032,0.00000166,0.00000289,-0.00000173,-0.00000069,-
 0.00000315,0.00000068,0.00000040,0.00000265,-0.00000161,0.00000076,-0.
 00000262,0.00000059,-0.00000102,0.00000244,-0.00000144,0.00000201,-0.0
 0000241,0.00000030,-0.00000195,0.00000220,-0.00000123,0.00000253,-0.00
 000216,0.00000009,-0.00000247,0.00000192,-0.00000095,0.00000201,-0.000
 00206,-0.00000013,-0.00000450,0.00000110,0.00000022,0.00000274,-0.0000
 0283,-0.00000012,-0.00000120,0.00000108,-0.00000149,0.00000083,0.00000
 040,-0.00000066,-0.00000285,-0.00000039,-0.00000029,0.00000163,-0.0000
 0049,-0.00000011,0.00000078,-0.00000030,-0.00000125,-0.00000184,-0.000
 00074,0.00000096,0.00000030,0.00000026,-0.00000063,0.00000060,0.000001
 06,-0.00000247,0.00000055,-0.00000339,0.00000292,-0.00000021,0.0000031
 3,-0.00000336,0.00000063,-0.00000350,0.00000303,-0.00000024,0.00000301
 ,-0.00000314,0.00000026,-0.00000310,0.00000295,0.00000019,0.00000254,-
 0.00000265,-0.00000036,-0.00000231,0.00000258,0.00000085,0.00000183,-0
 .00000211,-0.00000121,-0.00000143,0.00000211,0.00000136,0.00000162,-0.
 00000200,-0.00000210,-0.00000088,0.00000199,0.00000023,0.00000149,-0.0
 0000138,-0.00000119,-0.00000019,0.00000096,0.00000014,0.00000028,0.000
 00001,0.00000012,-0.00000068,0.00000033,-0.00000033,0.00000098,-0.0000
 0025,0.00000035,-0.00000100,0.00000043,-0.00000013,0.00000103,-0.00000
 030,0.00000002,-0.00000112,0.00000057,-0.00000026,0.00000132,-0.000000
 33,-0.00000023,-0.00000064,0.00000037,-0.00000049,-0.00000046,0.000000
 36,0.00000060,0.00000041,-0.00000014,0.00000052,0.00000078,-0.00000023
 ,0.00000006,-0.00000124,0.00000086,0.00000018,0.00000166,0.00000012,-0
 .00000024,-0.00000053,0.00000037,-0.00000035,-0.00000039,-0.00000031,0
 .00000057,-0.00000002,-0.00000021,0.00000010,0.00000043,0.00000014,0.0
 0000055,-0.00000036,0.00000146,-0.00000008,0.00000101,0.,0.00000031,-0
 .00000072,0.00000060,-0.00000031,0.00000090,0.00000007,0.00000042,-0.0
 0000081,0.00000061,-0.00000044,0.00000097,0.00000004,0.00000051,-0.000
 00099,0.00000068,-0.00000050,0.00000116,-0.00000005,0.00000055,-0.0000
 0120,0.00000075,-0.00000050,0.00000135,-0.00000054,0.00000055,-0.00000
 082,0.00000055,-0.00000109,-0.00000023,-0.00000001,0.00000123,0.000000
 39,0.00000053,-0.00000061,0.00000189,0.00000139,0.00000057,-0.00000050
 ,0.00000100,-0.00000097,-0.00000023,0.00000031,0.00000064,-0.00000082,
 -0.00000106,-0.00000052,0.00000046,-0.00000015,0.00000034,0.00000031,0
 .00000078,-0.00000033,-0.00000019,0.00000043,0.00000076,0.00000078,-0.
 00000025,-0.00000055,-0.00000042,0.00000077,0.00000055,0.00000051,-0.0
 0000046,-0.00000055,-0.00000043,0.00000072,0.00000064,0.00000052,-0.00
 000054,-0.00000065,-0.00000043,0.00000073,0.00000077,0.00000048,-0.000
 00056,-0.00000078,-0.00000034,0.00000070,0.00000085,0.00000042,-0.0000
 0050,-0.00000089,-0.00000022,0.00000068,0.00000097,0.00000037,-0.00000
 040,-0.00000050,-0.00000016,0.00000055,0.00000016,0.00000042,-0.000000
 09,0.00000008,0.00000057,-0.00000030,0.00000024,0.00000056,-0.00000019
 \\\@


 At the touch of love, everyone becomes a poet.
                                -- Plato
 Job cpu time:       0 days  5 hours 59 minutes 50.0 seconds.
 Elapsed time:       0 days  5 hours 59 minutes 58.0 seconds.
 File lengths (MBytes):  RWF=   9385 Int=      0 D2E=      0 Chk=     85 Scr=      1
 Normal termination of Gaussian 16 at Sun Oct 29 08:18:24 2023.
