 Entering Gaussian System, Link 0=g16
 Input=./com/26.com
 Output=./log/26.log
 Initial command:
 /home/shohei/gaussian/g16/l1.exe "/home/shohei/gaussian/scratch/Gau-26541.inp" -scrdir="/home/shohei/gaussian/scratch/"
 Entering Link 1 = /home/shohei/gaussian/g16/l1.exe PID=     26543.
  
 Copyright (c) 1988-2017, Gaussian, Inc.  All Rights Reserved.
  
 This is part of the Gaussian(R) 16 program.  It is based on
 the Gaussian(R) 09 system (copyright 2009, Gaussian, Inc.),
 the Gaussian(R) 03 system (copyright 2003, Gaussian, Inc.),
 the Gaussian(R) 98 system (copyright 1998, Gaussian, Inc.),
 the Gaussian(R) 94 system (copyright 1995, Gaussian, Inc.),
 the Gaussian 92(TM) system (copyright 1992, Gaussian, Inc.),
 the Gaussian 90(TM) system (copyright 1990, Gaussian, Inc.),
 the Gaussian 88(TM) system (copyright 1988, Gaussian, Inc.),
 the Gaussian 86(TM) system (copyright 1986, Carnegie Mellon
 University), and the Gaussian 82(TM) system (copyright 1983,
 Carnegie Mellon University). Gaussian is a federally registered
 trademark of Gaussian, Inc.
  
 This software contains proprietary and confidential information,
 including trade secrets, belonging to Gaussian, Inc.
  
 This software is provided under written license and may be
 used, copied, transmitted, or stored only in accord with that
 written license.
  
 The following legend is applicable only to US Government
 contracts under FAR:
  
                    RESTRICTED RIGHTS LEGEND
  
 Use, reproduction and disclosure by the US Government is
 subject to restrictions as set forth in subparagraphs (a)
 and (c) of the Commercial Computer Software - Restricted
 Rights clause in FAR 52.227-19.
  
 Gaussian, Inc.
 340 Quinnipiac St., Bldg. 40, Wallingford CT 06492
  
  
 ---------------------------------------------------------------
 Warning -- This program may not be used in any manner that
 competes with the business of Gaussian, Inc. or will provide
 assistance to any competitor of Gaussian, Inc.  The licensee
 of this program is prohibited from giving any competitor of
 Gaussian, Inc. access to this program.  By using this program,
 the user acknowledges that Gaussian, Inc. is engaged in the
 business of creating and licensing software in the field of
 computational chemistry and represents and warrants to the
 licensee that it is not a competitor of Gaussian, Inc. and that
 it will not use this program in any manner prohibited above.
 ---------------------------------------------------------------
  

 Cite this work as:
 Gaussian 16, Revision B.01,
 M. J. Frisch, G. W. Trucks, H. B. Schlegel, G. E. Scuseria, 
 M. A. Robb, J. R. Cheeseman, G. Scalmani, V. Barone, 
 G. A. Petersson, H. Nakatsuji, X. Li, M. Caricato, A. V. Marenich, 
 J. Bloino, B. G. Janesko, R. Gomperts, B. Mennucci, H. P. Hratchian, 
 J. V. Ortiz, A. F. Izmaylov, J. L. Sonnenberg, D. Williams-Young, 
 F. Ding, F. Lipparini, F. Egidi, J. Goings, B. Peng, A. Petrone, 
 T. Henderson, D. Ranasinghe, V. G. Zakrzewski, J. Gao, N. Rega, 
 G. Zheng, W. Liang, M. Hada, M. Ehara, K. Toyota, R. Fukuda, 
 J. Hasegawa, M. Ishida, T. Nakajima, Y. Honda, O. Kitao, H. Nakai, 
 T. Vreven, K. Throssell, J. A. Montgomery, Jr., J. E. Peralta, 
 F. Ogliaro, M. J. Bearpark, J. J. Heyd, E. N. Brothers, K. N. Kudin, 
 V. N. Staroverov, T. A. Keith, R. Kobayashi, J. Normand, 
 K. Raghavachari, A. P. Rendell, J. C. Burant, S. S. Iyengar, 
 J. Tomasi, M. Cossi, J. M. Millam, M. Klene, C. Adamo, R. Cammi, 
 J. W. Ochterski, R. L. Martin, K. Morokuma, O. Farkas, 
 J. B. Foresman, and D. J. Fox, Gaussian, Inc., Wallingford CT, 2016.
 
 ******************************************
 Gaussian 16:  EM64L-G16RevB.01 20-Dec-2017
                29-Oct-2023 
 ******************************************
 %chk=./chk/26.chk
 ---------------------------
 # B3LYP/6-31G(d,p) OPT FREQ
 ---------------------------
 1/18=20,19=15,26=3,38=1/1,3;
 2/9=110,12=2,17=6,18=5,40=1/2;
 3/5=1,6=6,7=101,11=2,25=1,30=1,71=1,74=-5/1,2,3;
 4//1;
 5/5=2,38=5/2;
 6/7=2,8=2,9=2,10=2,28=1/1;
 7//1,2,3,16;
 1/18=20,19=15,26=3/3(2);
 2/9=110/2;
 99//99;
 2/9=110/2;
 3/5=1,6=6,7=101,11=2,25=1,30=1,71=1,74=-5/1,2,3;
 4/5=5,16=3,69=1/1;
 5/5=2,38=5/2;
 7//1,2,3,16;
 1/18=20,19=15,26=3/3(-5);
 2/9=110/2;
 6/7=2,8=2,9=2,10=2,19=2,28=1/1;
 99/9=1/99;
 ------
 26poly
 ------
 Symbolic Z-matrix:
 Charge =  0 Multiplicity = 1
 C                    -30.01074   3.71996  -0.19272 
 C                    -28.91214   4.30129  -0.68007 
 C                    -27.56651   3.87565  -0.24413 
 C                    -26.46567   4.46066  -0.73466 
 C                    -25.12108   4.03335  -0.29575 
 C                    -24.01715   4.61523  -0.78325 
 C                    -22.67602   4.18334  -0.33837 
 C                    -21.5666   4.7588   -0.82167 
 C                    -20.22898   4.31974  -0.36971 
 C                    -19.11431   4.89272  -0.85816 
 C                    -17.72393   4.52515  -0.4735 
 C                    -17.40303   3.57367   0.42809 
 C                    -16.01714   3.19667   0.81283 
 C                    -14.89379   3.74163   0.31271 
 C                    -13.5675   3.26876   0.7675 
 C                    -12.43735   3.78596   0.25324 
 C                    -11.05828   3.36488   0.62252 
 C                    -10.76127   2.43055   1.55044 
 C                    -9.38594   1.98323   1.89849 
 C                    -8.25632   2.42738   1.32013 
 C                    -6.94323   1.8732    1.71427 
 C                    -5.82075   2.26044   1.0944 
 C                    -4.51398   1.66396   1.44143 
 C                    -3.41208   1.99215   0.75476 
 C                    -2.11164   1.35118   1.0409 
 C                    -1.04515   1.6147    0.27503 
 C                     0.24672   0.92994   0.48996 
 C                     1.26221   1.12977  -0.36024 
 C                     2.54449   0.40631  -0.22368 
 C                     3.4943    0.55654  -1.16275 
 C                     4.79934  -0.15042  -1.19601 
 C                     5.25528  -0.99572  -0.24711 
 C                     6.55201  -1.72992  -0.3239 
 C                     7.3689   -1.71821  -1.39852 
 C                     8.64995  -2.4598   -1.52055 
 C                     9.2309   -3.19437  -0.54839 
 C                     10.51979  -3.92966  -0.7074 
 C                     11.19805  -4.03564  -1.87003 
 C                     12.48613  -4.75038  -2.05279 
 C                     13.20612  -5.33579  -1.08064 
 C                     14.49198  -5.9844   -1.41651 
 C                     15.2875  -6.51055  -0.4763 
 C                     16.58175  -7.11496  -0.85654 
 C                     17.43875  -7.57877   0.06188 
 C                     18.74062  -8.1429   -0.35267 
 C                     19.64465  -8.55025   0.54726 
 C                     20.95195  -9.08241   0.10832 
 C                     21.88745  -9.4464    0.9947 
 C                     23.19802  -9.95758   0.54096 
 C                     24.15083  -10.29501   1.41949 
 C                     25.4622  -10.79598   0.95872 
 C                     26.42102  -11.12279   1.828 
 H                    -29.94576   2.91833   0.53722 
 H                    -29.01845   5.10021  -1.40899 
 H                    -27.47351   3.07513   0.48642 
 H                    -26.55828   5.26114  -1.46514 
 H                    -25.03112   3.2332    0.43557 
 H                    -24.10455   5.41535  -1.5147 
 H                    -22.59336   3.38382   0.39448 
 H                    -21.64747   5.55781  -1.55509 
 H                    -20.17814   3.52413   0.36284 
 H                    -19.21572   5.68601  -1.59406 
 H                    -16.94537   5.08381  -0.97608 
 H                    -18.17997   3.01559   0.93257 
 H                    -15.92742   2.40932   1.55667 
 H                    -14.93219   4.52537  -0.43396 
 H                    -13.53664   2.48671   1.51561 
 H                    -12.51626   4.56244  -0.50303 
 H                    -10.26722   3.86275   0.07764 
 H                    -11.55131   1.93514   2.09839 
 H                    -9.31125   1.22051   2.66907 
 H                    -8.28097   3.1765    0.53841 
 H                    -6.89473   1.11935   2.49666 
 H                    -5.87198   3.001     0.29941 
 H                    -4.45674   0.92511   2.23729 
 H                    -3.47913   2.71533  -0.05505 
 H                    -2.03364   0.63161   1.85242 
 H                    -1.13869   2.31752  -0.55004 
 H                     0.35662   0.23181   1.31627 
 H                     1.13023   1.81228  -1.19715 
 H                     2.67991  -0.26508   0.61614 
 H                     3.29827   1.22394  -1.99816 
 H                     5.38973   0.05608  -2.0772 
 H                     4.66478  -1.1815    0.64129 
 H                     6.80861  -2.3205    0.54632 
 H                     7.10336  -1.15285  -2.28027 
 H                     9.12103  -2.36426  -2.48838 
 H                     8.76726  -3.26697   0.42727 
 H                     10.90238  -4.40481   0.1872 
 H                     10.81314  -3.58482  -2.77334 
 H                     12.87084  -4.77296  -3.0694 
 H                     12.87747  -5.32547  -0.04781 
 H                     14.80766  -6.01351  -2.45744 
 H                     14.99466  -6.47371   0.57027 
 H                     16.8502  -7.16206  -1.9099 
 H                     17.18807  -7.52181   1.11852 
 H                     18.97278  -8.20938  -1.4135 
 H                     19.42536  -8.4746    1.60976 
 H                     21.1589  -9.16577  -0.95645 
 H                     21.68846  -9.35617   2.0601 
 H                     23.39032  -10.05294  -0.5255 
 H                     23.96315  -10.19601   2.48621 
 H                     25.65874  -10.90118  -0.10502 
 H                     26.26437  -11.03006   2.8986 
 H                     27.37767  -11.48728   1.46776 
 H                    -30.99045   4.04712  -0.5255 
 

 GradGradGradGradGradGradGradGradGradGradGradGradGradGradGradGradGradGrad
 Berny optimization.
 Initialization pass.
                           ----------------------------
                           !    Initial Parameters    !
                           ! (Angstroms and Degrees)  !
 --------------------------                            --------------------------
 ! Name  Definition              Value          Derivative Info.                !
 --------------------------------------------------------------------------------
 ! R1    R(1,2)                  1.3351         estimate D2E/DX2                !
 ! R2    R(1,53)                 1.0861         estimate D2E/DX2                !
 ! R3    R(1,106)                1.0852         estimate D2E/DX2                !
 ! R4    R(2,3)                  1.4771         estimate D2E/DX2                !
 ! R5    R(2,54)                 1.0867         estimate D2E/DX2                !
 ! R6    R(3,4)                  1.3397         estimate D2E/DX2                !
 ! R7    R(3,55)                 1.0877         estimate D2E/DX2                !
 ! R8    R(4,5)                  1.4775         estimate D2E/DX2                !
 ! R9    R(4,56)                 1.0876         estimate D2E/DX2                !
 ! R10   R(5,6)                  1.3397         estimate D2E/DX2                !
 ! R11   R(5,57)                 1.0877         estimate D2E/DX2                !
 ! R12   R(6,7)                  1.4775         estimate D2E/DX2                !
 ! R13   R(6,58)                 1.0876         estimate D2E/DX2                !
 ! R14   R(7,8)                  1.34           estimate D2E/DX2                !
 ! R15   R(7,59)                 1.0877         estimate D2E/DX2                !
 ! R16   R(8,9)                  1.4786         estimate D2E/DX2                !
 ! R17   R(8,60)                 1.0876         estimate D2E/DX2                !
 ! R18   R(9,10)                 1.3451         estimate D2E/DX2                !
 ! R19   R(9,61)                 1.0827         estimate D2E/DX2                !
 ! R20   R(10,11)                1.4887         estimate D2E/DX2                !
 ! R21   R(10,62)                1.0868         estimate D2E/DX2                !
 ! R22   R(11,12)                1.3495         estimate D2E/DX2                !
 ! R23   R(11,63)                1.0821         estimate D2E/DX2                !
 ! R24   R(12,13)                1.4869         estimate D2E/DX2                !
 ! R25   R(12,64)                1.0815         estimate D2E/DX2                !
 ! R26   R(13,14)                1.345          estimate D2E/DX2                !
 ! R27   R(13,65)                1.0869         estimate D2E/DX2                !
 ! R28   R(14,15)                1.4797         estimate D2E/DX2                !
 ! R29   R(14,66)                1.0832         estimate D2E/DX2                !
 ! R30   R(15,16)                1.3451         estimate D2E/DX2                !
 ! R31   R(15,67)                1.0827         estimate D2E/DX2                !
 ! R32   R(16,17)                1.4885         estimate D2E/DX2                !
 ! R33   R(16,68)                1.0868         estimate D2E/DX2                !
 ! R34   R(17,18)                1.3499         estimate D2E/DX2                !
 ! R35   R(17,69)                1.0819         estimate D2E/DX2                !
 ! R36   R(18,19)                1.4875         estimate D2E/DX2                !
 ! R37   R(18,70)                1.0816         estimate D2E/DX2                !
 ! R38   R(19,20)                1.3445         estimate D2E/DX2                !
 ! R39   R(19,71)                1.0868         estimate D2E/DX2                !
 ! R40   R(20,21)                1.4787         estimate D2E/DX2                !
 ! R41   R(20,72)                1.083          estimate D2E/DX2                !
 ! R42   R(21,22)                1.3395         estimate D2E/DX2                !
 ! R43   R(21,73)                1.0876         estimate D2E/DX2                !
 ! R44   R(22,23)                1.4778         estimate D2E/DX2                !
 ! R45   R(22,74)                1.0877         estimate D2E/DX2                !
 ! R46   R(23,24)                1.3392         estimate D2E/DX2                !
 ! R47   R(23,75)                1.0875         estimate D2E/DX2                !
 ! R48   R(24,25)                1.4778         estimate D2E/DX2                !
 ! R49   R(24,76)                1.0878         estimate D2E/DX2                !
 ! R50   R(25,26)                1.3392         estimate D2E/DX2                !
 ! R51   R(25,77)                1.0874         estimate D2E/DX2                !
 ! R52   R(26,27)                1.4778         estimate D2E/DX2                !
 ! R53   R(26,78)                1.0879         estimate D2E/DX2                !
 ! R54   R(27,28)                1.3394         estimate D2E/DX2                !
 ! R55   R(27,79)                1.0873         estimate D2E/DX2                !
 ! R56   R(28,29)                1.4786         estimate D2E/DX2                !
 ! R57   R(28,80)                1.088          estimate D2E/DX2                !
 ! R58   R(29,30)                1.3441         estimate D2E/DX2                !
 ! R59   R(29,81)                1.0837         estimate D2E/DX2                !
 ! R60   R(30,31)                1.4846         estimate D2E/DX2                !
 ! R61   R(30,82)                1.0871         estimate D2E/DX2                !
 ! R62   R(31,32)                1.3501         estimate D2E/DX2                !
 ! R63   R(31,83)                1.0806         estimate D2E/DX2                !
 ! R64   R(32,33)                1.4921         estimate D2E/DX2                !
 ! R65   R(32,84)                1.0828         estimate D2E/DX2                !
 ! R66   R(33,34)                1.3499         estimate D2E/DX2                !
 ! R67   R(33,85)                1.0825         estimate D2E/DX2                !
 ! R68   R(34,35)                1.4852         estimate D2E/DX2                !
 ! R69   R(34,86)                1.0806         estimate D2E/DX2                !
 ! R70   R(35,36)                1.3499         estimate D2E/DX2                !
 ! R71   R(35,87)                1.0806         estimate D2E/DX2                !
 ! R72   R(36,37)                1.4924         estimate D2E/DX2                !
 ! R73   R(36,88)                1.0827         estimate D2E/DX2                !
 ! R74   R(37,38)                1.3502         estimate D2E/DX2                !
 ! R75   R(37,89)                1.0828         estimate D2E/DX2                !
 ! R76   R(38,39)                1.4844         estimate D2E/DX2                !
 ! R77   R(38,90)                1.0804         estimate D2E/DX2                !
 ! R78   R(39,40)                1.3439         estimate D2E/DX2                !
 ! R79   R(39,91)                1.0872         estimate D2E/DX2                !
 ! R80   R(40,41)                1.4788         estimate D2E/DX2                !
 ! R81   R(40,92)                1.0839         estimate D2E/DX2                !
 ! R82   R(41,42)                1.3393         estimate D2E/DX2                !
 ! R83   R(41,93)                1.0881         estimate D2E/DX2                !
 ! R84   R(42,43)                1.4782         estimate D2E/DX2                !
 ! R85   R(42,94)                1.0874         estimate D2E/DX2                !
 ! R86   R(43,44)                1.3391         estimate D2E/DX2                !
 ! R87   R(43,95)                1.088          estimate D2E/DX2                !
 ! R88   R(44,45)                1.4782         estimate D2E/DX2                !
 ! R89   R(44,96)                1.0875         estimate D2E/DX2                !
 ! R90   R(45,46)                1.3391         estimate D2E/DX2                !
 ! R91   R(45,97)                1.088          estimate D2E/DX2                !
 ! R92   R(46,47)                1.4781         estimate D2E/DX2                !
 ! R93   R(46,98)                1.0875         estimate D2E/DX2                !
 ! R94   R(47,48)                1.3391         estimate D2E/DX2                !
 ! R95   R(47,99)                1.0879         estimate D2E/DX2                !
 ! R96   R(48,49)                1.4781         estimate D2E/DX2                !
 ! R97   R(48,100)               1.0876         estimate D2E/DX2                !
 ! R98   R(49,50)                1.3392         estimate D2E/DX2                !
 ! R99   R(49,101)               1.0878         estimate D2E/DX2                !
 ! R100  R(50,51)                1.4775         estimate D2E/DX2                !
 ! R101  R(50,102)               1.0876         estimate D2E/DX2                !
 ! R102  R(51,52)                1.3348         estimate D2E/DX2                !
 ! R103  R(51,103)               1.0869         estimate D2E/DX2                !
 ! R104  R(52,104)               1.086          estimate D2E/DX2                !
 ! R105  R(52,105)               1.0853         estimate D2E/DX2                !
 ! A1    A(2,1,53)             121.1631         estimate D2E/DX2                !
 ! A2    A(2,1,106)            119.9791         estimate D2E/DX2                !
 ! A3    A(53,1,106)           118.8578         estimate D2E/DX2                !
 ! A4    A(1,2,3)              121.0925         estimate D2E/DX2                !
 ! A5    A(1,2,54)             118.9787         estimate D2E/DX2                !
 ! A6    A(3,2,54)             119.9288         estimate D2E/DX2                !
 ! A7    A(2,3,4)              120.9759         estimate D2E/DX2                !
 ! A8    A(2,3,55)             119.22           estimate D2E/DX2                !
 ! A9    A(4,3,55)             119.8041         estimate D2E/DX2                !
 ! A10   A(3,4,5)              120.8455         estimate D2E/DX2                !
 ! A11   A(3,4,56)             119.8242         estimate D2E/DX2                !
 ! A12   A(5,4,56)             119.3304         estimate D2E/DX2                !
 ! A13   A(4,5,6)              121.0738         estimate D2E/DX2                !
 ! A14   A(4,5,57)             119.1911         estimate D2E/DX2                !
 ! A15   A(6,5,57)             119.7351         estimate D2E/DX2                !
 ! A16   A(5,6,7)              120.7577         estimate D2E/DX2                !
 ! A17   A(5,6,58)             119.8696         estimate D2E/DX2                !
 ! A18   A(7,6,58)             119.3727         estimate D2E/DX2                !
 ! A19   A(6,7,8)              121.1565         estimate D2E/DX2                !
 ! A20   A(6,7,59)             119.1237         estimate D2E/DX2                !
 ! A21   A(8,7,59)             119.7198         estimate D2E/DX2                !
 ! A22   A(7,8,9)              120.7452         estimate D2E/DX2                !
 ! A23   A(7,8,60)             119.8124         estimate D2E/DX2                !
 ! A24   A(9,8,60)             119.4424         estimate D2E/DX2                !
 ! A25   A(8,9,10)             120.8085         estimate D2E/DX2                !
 ! A26   A(8,9,61)             117.8725         estimate D2E/DX2                !
 ! A27   A(10,9,61)            121.3189         estimate D2E/DX2                !
 ! A28   A(9,10,11)            125.0957         estimate D2E/DX2                !
 ! A29   A(9,10,62)            118.6519         estimate D2E/DX2                !
 ! A30   A(11,10,62)           116.2521         estimate D2E/DX2                !
 ! A31   A(10,11,12)           124.6661         estimate D2E/DX2                !
 ! A32   A(10,11,63)           115.1202         estimate D2E/DX2                !
 ! A33   A(12,11,63)           120.2137         estimate D2E/DX2                !
 ! A34   A(11,12,13)           124.979          estimate D2E/DX2                !
 ! A35   A(11,12,64)           120.3079         estimate D2E/DX2                !
 ! A36   A(13,12,64)           114.7129         estimate D2E/DX2                !
 ! A37   A(12,13,14)           125.4173         estimate D2E/DX2                !
 ! A38   A(12,13,65)           115.9574         estimate D2E/DX2                !
 ! A39   A(14,13,65)           118.6241         estimate D2E/DX2                !
 ! A40   A(13,14,15)           120.3213         estimate D2E/DX2                !
 ! A41   A(13,14,66)           121.3248         estimate D2E/DX2                !
 ! A42   A(15,14,66)           118.3516         estimate D2E/DX2                !
 ! A43   A(14,15,16)           120.8452         estimate D2E/DX2                !
 ! A44   A(14,15,67)           117.9535         estimate D2E/DX2                !
 ! A45   A(16,15,67)           121.1967         estimate D2E/DX2                !
 ! A46   A(15,16,17)           125.0884         estimate D2E/DX2                !
 ! A47   A(15,16,68)           118.6709         estimate D2E/DX2                !
 ! A48   A(17,16,68)           116.234          estimate D2E/DX2                !
 ! A49   A(16,17,18)           124.7638         estimate D2E/DX2                !
 ! A50   A(16,17,69)           114.9802         estimate D2E/DX2                !
 ! A51   A(18,17,69)           120.2538         estimate D2E/DX2                !
 ! A52   A(17,18,19)           124.9173         estimate D2E/DX2                !
 ! A53   A(17,18,70)           120.3027         estimate D2E/DX2                !
 ! A54   A(19,18,70)           114.776          estimate D2E/DX2                !
 ! A55   A(18,19,20)           125.2258         estimate D2E/DX2                !
 ! A56   A(18,19,71)           116.1348         estimate D2E/DX2                !
 ! A57   A(20,19,71)           118.6253         estimate D2E/DX2                !
 ! A58   A(19,20,21)           120.5034         estimate D2E/DX2                !
 ! A59   A(19,20,72)           121.3229         estimate D2E/DX2                !
 ! A60   A(21,20,72)           118.1531         estimate D2E/DX2                !
 ! A61   A(20,21,22)           120.8269         estimate D2E/DX2                !
 ! A62   A(20,21,73)           119.4142         estimate D2E/DX2                !
 ! A63   A(22,21,73)           119.7319         estimate D2E/DX2                !
 ! A64   A(21,22,23)           121.042          estimate D2E/DX2                !
 ! A65   A(21,22,74)           119.7098         estimate D2E/DX2                !
 ! A66   A(23,22,74)           119.2158         estimate D2E/DX2                !
 ! A67   A(22,23,24)           120.5486         estimate D2E/DX2                !
 ! A68   A(22,23,75)           119.5144         estimate D2E/DX2                !
 ! A69   A(24,23,75)           119.8978         estimate D2E/DX2                !
 ! A70   A(23,24,25)           121.2311         estimate D2E/DX2                !
 ! A71   A(23,24,76)           119.5992         estimate D2E/DX2                !
 ! A72   A(25,24,76)           119.127          estimate D2E/DX2                !
 ! A73   A(24,25,26)           120.3126         estimate D2E/DX2                !
 ! A74   A(24,25,77)           119.6466         estimate D2E/DX2                !
 ! A75   A(26,25,77)           119.9928         estimate D2E/DX2                !
 ! A76   A(25,26,27)           121.4538         estimate D2E/DX2                !
 ! A77   A(25,26,78)           119.4979         estimate D2E/DX2                !
 ! A78   A(27,26,78)           119.0006         estimate D2E/DX2                !
 ! A79   A(26,27,28)           120.0875         estimate D2E/DX2                !
 ! A80   A(26,27,79)           119.7611         estimate D2E/DX2                !
 ! A81   A(28,27,79)           120.102          estimate D2E/DX2                !
 ! A82   A(27,28,29)           121.7278         estimate D2E/DX2                !
 ! A83   A(27,28,80)           119.3343         estimate D2E/DX2                !
 ! A84   A(29,28,80)           118.8937         estimate D2E/DX2                !
 ! A85   A(28,29,30)           119.5788         estimate D2E/DX2                !
 ! A86   A(28,29,81)           118.8859         estimate D2E/DX2                !
 ! A87   A(30,29,81)           121.492          estimate D2E/DX2                !
 ! A88   A(29,30,31)           125.7056         estimate D2E/DX2                !
 ! A89   A(29,30,82)           118.5617         estimate D2E/DX2                !
 ! A90   A(31,30,82)           115.6996         estimate D2E/DX2                !
 ! A91   A(30,31,32)           125.3986         estimate D2E/DX2                !
 ! A92   A(30,31,83)           114.0505         estimate D2E/DX2                !
 ! A93   A(32,31,83)           120.5484         estimate D2E/DX2                !
 ! A94   A(31,32,33)           124.4289         estimate D2E/DX2                !
 ! A95   A(31,32,84)           119.993          estimate D2E/DX2                !
 ! A96   A(33,32,84)           115.5775         estimate D2E/DX2                !
 ! A97   A(32,33,34)           124.2354         estimate D2E/DX2                !
 ! A98   A(32,33,85)           115.6618         estimate D2E/DX2                !
 ! A99   A(34,33,85)           120.0812         estimate D2E/DX2                !
 ! A100  A(33,34,35)           125.6633         estimate D2E/DX2                !
 ! A101  A(33,34,86)           120.3594         estimate D2E/DX2                !
 ! A102  A(35,34,86)           113.9639         estimate D2E/DX2                !
 ! A103  A(34,35,36)           125.7139         estimate D2E/DX2                !
 ! A104  A(34,35,87)           113.9184         estimate D2E/DX2                !
 ! A105  A(36,35,87)           120.3658         estimate D2E/DX2                !
 ! A106  A(35,36,37)           124.2681         estimate D2E/DX2                !
 ! A107  A(35,36,88)           120.0798         estimate D2E/DX2                !
 ! A108  A(37,36,88)           115.6468         estimate D2E/DX2                !
 ! A109  A(36,37,38)           124.3522         estimate D2E/DX2                !
 ! A110  A(36,37,89)           115.6798         estimate D2E/DX2                !
 ! A111  A(38,37,89)           119.9655         estimate D2E/DX2                !
 ! A112  A(37,38,39)           125.4317         estimate D2E/DX2                !
 ! A113  A(37,38,90)           120.5442         estimate D2E/DX2                !
 ! A114  A(39,38,90)           114.0235         estimate D2E/DX2                !
 ! A115  A(38,39,40)           125.843          estimate D2E/DX2                !
 ! A116  A(38,39,91)           115.6062         estimate D2E/DX2                !
 ! A117  A(40,39,91)           118.54           estimate D2E/DX2                !
 ! A118  A(39,40,41)           119.5111         estimate D2E/DX2                !
 ! A119  A(39,40,92)           121.5123         estimate D2E/DX2                !
 ! A120  A(41,40,92)           118.9624         estimate D2E/DX2                !
 ! A121  A(40,41,42)           121.9614         estimate D2E/DX2                !
 ! A122  A(40,41,93)           118.767          estimate D2E/DX2                !
 ! A123  A(42,41,93)           119.2577         estimate D2E/DX2                !
 ! A124  A(41,42,43)           120.0091         estimate D2E/DX2                !
 ! A125  A(41,42,94)           120.1583         estimate D2E/DX2                !
 ! A126  A(43,42,94)           119.8171         estimate D2E/DX2                !
 ! A127  A(42,43,44)           121.707          estimate D2E/DX2                !
 ! A128  A(42,43,95)           118.8658         estimate D2E/DX2                !
 ! A129  A(44,43,95)           119.4133         estimate D2E/DX2                !
 ! A130  A(43,44,45)           120.2332         estimate D2E/DX2                !
 ! A131  A(43,44,96)           120.0497         estimate D2E/DX2                !
 ! A132  A(45,44,96)           119.7038         estimate D2E/DX2                !
 ! A133  A(44,45,46)           121.482          estimate D2E/DX2                !
 ! A134  A(44,45,97)           118.9933         estimate D2E/DX2                !
 ! A135  A(46,45,97)           119.5145         estimate D2E/DX2                !
 ! A136  A(45,46,47)           120.4672         estimate D2E/DX2                !
 ! A137  A(45,46,98)           119.9533         estimate D2E/DX2                !
 ! A138  A(47,46,98)           119.5712         estimate D2E/DX2                !
 ! A139  A(46,47,48)           121.2747         estimate D2E/DX2                !
 ! A140  A(46,47,99)           119.1086         estimate D2E/DX2                !
 ! A141  A(48,47,99)           119.6115         estimate D2E/DX2                !
 ! A142  A(47,48,49)           120.6784         estimate D2E/DX2                !
 ! A143  A(47,48,100)          119.8699         estimate D2E/DX2                !
 ! A144  A(49,48,100)          119.4482         estimate D2E/DX2                !
 ! A145  A(48,49,50)           121.1036         estimate D2E/DX2                !
 ! A146  A(48,49,101)          119.2089         estimate D2E/DX2                !
 ! A147  A(50,49,101)          119.686          estimate D2E/DX2                !
 ! A148  A(49,50,51)           120.8185         estimate D2E/DX2                !
 ! A149  A(49,50,102)          119.8476         estimate D2E/DX2                !
 ! A150  A(51,50,102)          119.3332         estimate D2E/DX2                !
 ! A151  A(50,51,52)           121.1625         estimate D2E/DX2                !
 ! A152  A(50,51,103)          119.9045         estimate D2E/DX2                !
 ! A153  A(52,51,103)          118.9329         estimate D2E/DX2                !
 ! A154  A(51,52,104)          121.164          estimate D2E/DX2                !
 ! A155  A(51,52,105)          119.9498         estimate D2E/DX2                !
 ! A156  A(104,52,105)         118.8861         estimate D2E/DX2                !
 ! D1    D(53,1,2,3)            -0.0111         estimate D2E/DX2                !
 ! D2    D(53,1,2,54)         -179.9962         estimate D2E/DX2                !
 ! D3    D(106,1,2,3)          179.9865         estimate D2E/DX2                !
 ! D4    D(106,1,2,54)           0.0013         estimate D2E/DX2                !
 ! D5    D(1,2,3,4)           -179.9971         estimate D2E/DX2                !
 ! D6    D(1,2,3,55)            -0.0151         estimate D2E/DX2                !
 ! D7    D(54,2,3,4)            -0.012          estimate D2E/DX2                !
 ! D8    D(54,2,3,55)          179.97           estimate D2E/DX2                !
 ! D9    D(2,3,4,5)            179.9507         estimate D2E/DX2                !
 ! D10   D(2,3,4,56)            -0.0172         estimate D2E/DX2                !
 ! D11   D(55,3,4,5)            -0.0312         estimate D2E/DX2                !
 ! D12   D(55,3,4,56)         -179.9991         estimate D2E/DX2                !
 ! D13   D(3,4,5,6)           -179.9972         estimate D2E/DX2                !
 ! D14   D(3,4,5,57)            -0.0242         estimate D2E/DX2                !
 ! D15   D(56,4,5,6)            -0.0291         estimate D2E/DX2                !
 ! D16   D(56,4,5,57)          179.944          estimate D2E/DX2                !
 ! D17   D(4,5,6,7)            179.935          estimate D2E/DX2                !
 ! D18   D(4,5,6,58)            -0.0379         estimate D2E/DX2                !
 ! D19   D(57,5,6,7)            -0.0379         estimate D2E/DX2                !
 ! D20   D(57,5,6,58)          179.9893         estimate D2E/DX2                !
 ! D21   D(5,6,7,8)            179.931          estimate D2E/DX2                !
 ! D22   D(5,6,7,59)            -0.0681         estimate D2E/DX2                !
 ! D23   D(58,6,7,8)            -0.096          estimate D2E/DX2                !
 ! D24   D(58,6,7,59)          179.9049         estimate D2E/DX2                !
 ! D25   D(6,7,8,9)            179.9777         estimate D2E/DX2                !
 ! D26   D(6,7,8,60)            -0.0481         estimate D2E/DX2                !
 ! D27   D(59,7,8,9)            -0.0233         estimate D2E/DX2                !
 ! D28   D(59,7,8,60)          179.951          estimate D2E/DX2                !
 ! D29   D(7,8,9,10)           179.7214         estimate D2E/DX2                !
 ! D30   D(7,8,9,61)            -0.1749         estimate D2E/DX2                !
 ! D31   D(60,8,9,10)           -0.253          estimate D2E/DX2                !
 ! D32   D(60,8,9,61)          179.8507         estimate D2E/DX2                !
 ! D33   D(8,9,10,11)         -179.8858         estimate D2E/DX2                !
 ! D34   D(8,9,10,62)           -0.0594         estimate D2E/DX2                !
 ! D35   D(61,9,10,11)           0.0069         estimate D2E/DX2                !
 ! D36   D(61,9,10,62)         179.8333         estimate D2E/DX2                !
 ! D37   D(9,10,11,12)          -0.6423         estimate D2E/DX2                !
 ! D38   D(9,10,11,63)         179.3158         estimate D2E/DX2                !
 ! D39   D(62,10,11,12)        179.5276         estimate D2E/DX2                !
 ! D40   D(62,10,11,63)         -0.5144         estimate D2E/DX2                !
 ! D41   D(10,11,12,13)        179.7041         estimate D2E/DX2                !
 ! D42   D(10,11,12,64)         -0.1514         estimate D2E/DX2                !
 ! D43   D(63,11,12,13)         -0.2519         estimate D2E/DX2                !
 ! D44   D(63,11,12,64)        179.8925         estimate D2E/DX2                !
 ! D45   D(11,12,13,14)         -0.4694         estimate D2E/DX2                !
 ! D46   D(11,12,13,65)        179.9313         estimate D2E/DX2                !
 ! D47   D(64,12,13,14)        179.3933         estimate D2E/DX2                !
 ! D48   D(64,12,13,65)         -0.206          estimate D2E/DX2                !
 ! D49   D(12,13,14,15)       -179.3375         estimate D2E/DX2                !
 ! D50   D(12,13,14,66)          0.1006         estimate D2E/DX2                !
 ! D51   D(65,13,14,15)          0.252          estimate D2E/DX2                !
 ! D52   D(65,13,14,66)        179.6901         estimate D2E/DX2                !
 ! D53   D(13,14,15,16)        178.5448         estimate D2E/DX2                !
 ! D54   D(13,14,15,67)         -0.6791         estimate D2E/DX2                !
 ! D55   D(66,14,15,16)         -0.9098         estimate D2E/DX2                !
 ! D56   D(66,14,15,67)        179.8663         estimate D2E/DX2                !
 ! D57   D(14,15,16,17)       -178.8438         estimate D2E/DX2                !
 ! D58   D(14,15,16,68)          0.1802         estimate D2E/DX2                !
 ! D59   D(67,15,16,17)          0.3548         estimate D2E/DX2                !
 ! D60   D(67,15,16,68)        179.3788         estimate D2E/DX2                !
 ! D61   D(15,16,17,18)         -1.8443         estimate D2E/DX2                !
 ! D62   D(15,16,17,69)        177.6149         estimate D2E/DX2                !
 ! D63   D(68,16,17,18)        179.1103         estimate D2E/DX2                !
 ! D64   D(68,16,17,69)         -1.4305         estimate D2E/DX2                !
 ! D65   D(16,17,18,19)        178.4184         estimate D2E/DX2                !
 ! D66   D(16,17,18,70)         -0.8095         estimate D2E/DX2                !
 ! D67   D(69,17,18,19)         -1.0141         estimate D2E/DX2                !
 ! D68   D(69,17,18,70)        179.758          estimate D2E/DX2                !
 ! D69   D(17,18,19,20)         -1.3911         estimate D2E/DX2                !
 ! D70   D(17,18,19,71)        180.0            estimate D2E/DX2                !
 ! D71   D(70,18,19,20)        177.8747         estimate D2E/DX2                !
 ! D72   D(70,18,19,71)         -0.7342         estimate D2E/DX2                !
 ! D73   D(18,19,20,21)       -177.7409         estimate D2E/DX2                !
 ! D74   D(18,19,20,72)          0.5799         estimate D2E/DX2                !
 ! D75   D(71,19,20,21)          0.8363         estimate D2E/DX2                !
 ! D76   D(71,19,20,72)        179.1571         estimate D2E/DX2                !
 ! D77   D(19,20,21,22)        176.5144         estimate D2E/DX2                !
 ! D78   D(19,20,21,73)         -1.5893         estimate D2E/DX2                !
 ! D79   D(72,20,21,22)         -1.8586         estimate D2E/DX2                !
 ! D80   D(72,20,21,73)       -179.9624         estimate D2E/DX2                !
 ! D81   D(20,21,22,23)       -177.1363         estimate D2E/DX2                !
 ! D82   D(20,21,22,74)          0.7799         estimate D2E/DX2                !
 ! D83   D(73,21,22,23)          0.9615         estimate D2E/DX2                !
 ! D84   D(73,21,22,74)        178.8777         estimate D2E/DX2                !
 ! D85   D(21,22,23,24)        175.4781         estimate D2E/DX2                !
 ! D86   D(21,22,23,75)         -2.2408         estimate D2E/DX2                !
 ! D87   D(74,22,23,24)         -2.4482         estimate D2E/DX2                !
 ! D88   D(74,22,23,75)        179.8329         estimate D2E/DX2                !
 ! D89   D(22,23,24,25)       -176.674          estimate D2E/DX2                !
 ! D90   D(22,23,24,76)          0.9271         estimate D2E/DX2                !
 ! D91   D(75,23,24,25)          1.0361         estimate D2E/DX2                !
 ! D92   D(75,23,24,76)        178.6372         estimate D2E/DX2                !
 ! D93   D(23,24,25,26)        174.7171         estimate D2E/DX2                !
 ! D94   D(23,24,25,77)         -2.7627         estimate D2E/DX2                !
 ! D95   D(76,24,25,26)         -2.8951         estimate D2E/DX2                !
 ! D96   D(76,24,25,77)        179.6251         estimate D2E/DX2                !
 ! D97   D(24,25,26,27)       -176.443          estimate D2E/DX2                !
 ! D98   D(24,25,26,78)          1.0214         estimate D2E/DX2                !
 ! D99   D(77,25,26,27)          1.0281         estimate D2E/DX2                !
 ! D100  D(77,25,26,78)        178.4925         estimate D2E/DX2                !
 ! D101  D(25,26,27,28)        174.3753         estimate D2E/DX2                !
 ! D102  D(25,26,27,79)         -3.0727         estimate D2E/DX2                !
 ! D103  D(78,26,27,28)         -3.1013         estimate D2E/DX2                !
 ! D104  D(78,26,27,79)        179.4506         estimate D2E/DX2                !
 ! D105  D(26,27,28,29)       -176.5177         estimate D2E/DX2                !
 ! D106  D(26,27,28,80)          1.0375         estimate D2E/DX2                !
 ! D107  D(79,27,28,29)          0.9216         estimate D2E/DX2                !
 ! D108  D(79,27,28,80)        178.4768         estimate D2E/DX2                !
 ! D109  D(27,28,29,30)        174.5324         estimate D2E/DX2                !
 ! D110  D(27,28,29,81)         -3.1104         estimate D2E/DX2                !
 ! D111  D(80,28,29,30)         -3.0332         estimate D2E/DX2                !
 ! D112  D(80,28,29,81)        179.324          estimate D2E/DX2                !
 ! D113  D(28,29,30,31)       -176.9072         estimate D2E/DX2                !
 ! D114  D(28,29,30,82)          0.9053         estimate D2E/DX2                !
 ! D115  D(81,29,30,31)          0.6724         estimate D2E/DX2                !
 ! D116  D(81,29,30,82)        178.4849         estimate D2E/DX2                !
 ! D117  D(29,30,31,32)         -3.8251         estimate D2E/DX2                !
 ! D118  D(29,30,31,83)        175.5874         estimate D2E/DX2                !
 ! D119  D(82,30,31,32)        178.3072         estimate D2E/DX2                !
 ! D120  D(82,30,31,83)         -2.2804         estimate D2E/DX2                !
 ! D121  D(30,31,32,33)        177.893          estimate D2E/DX2                !
 ! D122  D(30,31,32,84)         -1.7974         estimate D2E/DX2                !
 ! D123  D(83,31,32,33)         -1.484          estimate D2E/DX2                !
 ! D124  D(83,31,32,84)        178.8256         estimate D2E/DX2                !
 ! D125  D(31,32,33,34)         -5.6086         estimate D2E/DX2                !
 ! D126  D(31,32,33,85)        176.0878         estimate D2E/DX2                !
 ! D127  D(84,32,33,34)        174.0942         estimate D2E/DX2                !
 ! D128  D(84,32,33,85)         -4.2094         estimate D2E/DX2                !
 ! D129  D(32,33,34,35)       -178.573          estimate D2E/DX2                !
 ! D130  D(32,33,34,86)          0.0147         estimate D2E/DX2                !
 ! D131  D(85,33,34,35)         -0.3401         estimate D2E/DX2                !
 ! D132  D(85,33,34,86)        178.2476         estimate D2E/DX2                !
 ! D133  D(33,34,35,36)         -4.1533         estimate D2E/DX2                !
 ! D134  D(33,34,35,87)        176.3394         estimate D2E/DX2                !
 ! D135  D(86,34,35,36)        177.1803         estimate D2E/DX2                !
 ! D136  D(86,34,35,87)         -2.3271         estimate D2E/DX2                !
 ! D137  D(34,35,36,37)        179.8796         estimate D2E/DX2                !
 ! D138  D(34,35,36,88)         -0.9915         estimate D2E/DX2                !
 ! D139  D(87,35,36,37)         -0.6423         estimate D2E/DX2                !
 ! D140  D(87,35,36,88)        178.4866         estimate D2E/DX2                !
 ! D141  D(35,36,37,38)         -5.6483         estimate D2E/DX2                !
 ! D142  D(35,36,37,89)        174.9238         estimate D2E/DX2                !
 ! D143  D(88,36,37,38)        175.1878         estimate D2E/DX2                !
 ! D144  D(88,36,37,89)         -4.24           estimate D2E/DX2                !
 ! D145  D(36,37,38,39)        179.4505         estimate D2E/DX2                !
 ! D146  D(36,37,38,90)         -0.8412         estimate D2E/DX2                !
 ! D147  D(89,37,38,39)         -1.1448         estimate D2E/DX2                !
 ! D148  D(89,37,38,90)        178.5635         estimate D2E/DX2                !
 ! D149  D(37,38,39,40)         -3.8287         estimate D2E/DX2                !
 ! D150  D(37,38,39,91)        177.3927         estimate D2E/DX2                !
 ! D151  D(90,38,39,40)        176.4464         estimate D2E/DX2                !
 ! D152  D(90,38,39,91)         -2.3322         estimate D2E/DX2                !
 ! D153  D(38,39,40,41)       -178.5386         estimate D2E/DX2                !
 ! D154  D(38,39,40,92)          0.074          estimate D2E/DX2                !
 ! D155  D(91,39,40,41)          0.2077         estimate D2E/DX2                !
 ! D156  D(91,39,40,92)        178.8202         estimate D2E/DX2                !
 ! D157  D(39,40,41,42)        175.8637         estimate D2E/DX2                !
 ! D158  D(39,40,41,93)         -2.772          estimate D2E/DX2                !
 ! D159  D(92,40,41,42)         -2.7844         estimate D2E/DX2                !
 ! D160  D(92,40,41,93)        178.5799         estimate D2E/DX2                !
 ! D161  D(40,41,42,43)       -178.2759         estimate D2E/DX2                !
 ! D162  D(40,41,42,94)          0.2862         estimate D2E/DX2                !
 ! D163  D(93,41,42,43)          0.3533         estimate D2E/DX2                !
 ! D164  D(93,41,42,94)        178.9154         estimate D2E/DX2                !
 ! D165  D(41,42,43,44)        175.96           estimate D2E/DX2                !
 ! D166  D(41,42,43,95)         -2.6717         estimate D2E/DX2                !
 ! D167  D(94,42,43,44)         -2.607          estimate D2E/DX2                !
 ! D168  D(94,42,43,95)        178.7613         estimate D2E/DX2                !
 ! D169  D(42,43,44,45)       -178.3013         estimate D2E/DX2                !
 ! D170  D(42,43,44,96)          0.3661         estimate D2E/DX2                !
 ! D171  D(95,43,44,45)          0.323          estimate D2E/DX2                !
 ! D172  D(95,43,44,96)        178.9905         estimate D2E/DX2                !
 ! D173  D(43,44,45,46)        176.5134         estimate D2E/DX2                !
 ! D174  D(43,44,45,97)         -2.3196         estimate D2E/DX2                !
 ! D175  D(96,44,45,46)         -2.1587         estimate D2E/DX2                !
 ! D176  D(96,44,45,97)        179.0084         estimate D2E/DX2                !
 ! D177  D(44,45,46,47)       -178.5977         estimate D2E/DX2                !
 ! D178  D(44,45,46,98)          0.3531         estimate D2E/DX2                !
 ! D179  D(97,45,46,47)          0.2293         estimate D2E/DX2                !
 ! D180  D(97,45,46,98)        179.1801         estimate D2E/DX2                !
 ! D181  D(45,46,47,48)        177.4108         estimate D2E/DX2                !
 ! D182  D(45,46,47,99)         -1.7603         estimate D2E/DX2                !
 ! D183  D(98,46,47,48)         -1.5441         estimate D2E/DX2                !
 ! D184  D(98,46,47,99)        179.2849         estimate D2E/DX2                !
 ! D185  D(46,47,48,49)       -179.0596         estimate D2E/DX2                !
 ! D186  D(46,47,48,100)         0.2685         estimate D2E/DX2                !
 ! D187  D(99,47,48,49)          0.1073         estimate D2E/DX2                !
 ! D188  D(99,47,48,100)       179.4354         estimate D2E/DX2                !
 ! D189  D(47,48,49,50)        178.4488         estimate D2E/DX2                !
 ! D190  D(47,48,49,101)        -1.1026         estimate D2E/DX2                !
 ! D191  D(100,48,49,50)        -0.882          estimate D2E/DX2                !
 ! D192  D(100,48,49,101)      179.5666         estimate D2E/DX2                !
 ! D193  D(48,49,50,51)       -179.548          estimate D2E/DX2                !
 ! D194  D(48,49,50,102)         0.1461         estimate D2E/DX2                !
 ! D195  D(101,49,50,51)         0.0013         estimate D2E/DX2                !
 ! D196  D(101,49,50,102)      179.6954         estimate D2E/DX2                !
 ! D197  D(49,50,51,52)        179.3859         estimate D2E/DX2                !
 ! D198  D(49,50,51,103)        -0.4744         estimate D2E/DX2                !
 ! D199  D(102,50,51,52)        -0.3097         estimate D2E/DX2                !
 ! D200  D(102,50,51,103)      179.8299         estimate D2E/DX2                !
 ! D201  D(50,51,52,104)         0.0211         estimate D2E/DX2                !
 ! D202  D(50,51,52,105)      -179.8993         estimate D2E/DX2                !
 ! D203  D(103,51,52,104)      179.8828         estimate D2E/DX2                !
 ! D204  D(103,51,52,105)       -0.0376         estimate D2E/DX2                !
 --------------------------------------------------------------------------------
 Trust Radius=3.00D-01 FncErr=1.00D-07 GrdErr=1.00D-06 EigMax=2.50D+02 EigMin=1.00D-04
 Number of steps in this run=    475 maximum allowed number of steps=    636.
 GradGradGradGradGradGradGradGradGradGradGradGradGradGradGradGradGradGrad

 Stoichiometry    C52H54
 Framework group  C1[X(C52H54)]
 Deg. of freedom   312
 Full point group                 C1      NOp   1
 Largest Abelian subgroup         C1      NOp   1
 Largest concise Abelian subgroup C1      NOp   1
                         Standard orientation:                         
 ---------------------------------------------------------------------
 Center     Atomic      Atomic             Coordinates (Angstroms)
 Number     Number       Type             X           Y           Z
 ---------------------------------------------------------------------
      1          6           0       28.978617    3.679974   -0.477317
      2          6           0       28.087972    2.774013   -0.887659
      3          6           0       26.676419    2.842927   -0.457910
      4          6           0       25.784661    1.932545   -0.871051
      5          6           0       24.373628    2.003619   -0.438519
      6          6           0       23.478026    1.095630   -0.848829
      7          6           0       22.069012    1.172566   -0.410814
      8          6           0       21.166335    0.269553   -0.817363
      9          6           0       19.758677    0.354953   -0.372982
     10          6           0       18.850271   -0.547614   -0.784748
     11          6           0       17.412125   -0.551250   -0.400112
     12          6           0       16.835900    0.348014    0.424795
     13          6           0       15.399418    0.354655    0.808612
     14          6           0       14.474833   -0.524572    0.383046
     15          6           0       13.068552   -0.403428    0.827105
     16          6           0       12.129664   -1.259274    0.385269
     17          6           0       10.687372   -1.209937    0.749777
     18          6           0       10.138868   -0.318072    1.601808
     19          6           0        8.692828   -0.244472    1.942853
     20          6           0        7.734027   -1.035966    1.430959
     21          6           0        6.317667   -0.838732    1.807388
     22          6           0        5.349793   -1.577479    1.249142
     23          6           0        3.927695   -1.342190    1.574914
     24          6           0        2.963084   -2.024605    0.944632
     25          6           0        1.534648   -1.750363    1.205829
     26          6           0        0.585976   -2.368017    0.490342
     27          6           0       -0.846430   -2.055783    0.676678
     28          6           0       -1.763927   -2.605700   -0.129411
     29          6           0       -3.197896   -2.260692   -0.024644
     30          6           0       -4.066161   -2.752646   -0.925010
     31          6           0       -5.517122   -2.444715   -0.987470
     32          6           0       -6.193214   -1.680582   -0.103263
     33          6           0       -7.643798   -1.348118   -0.211583
     34          6           0       -8.423189   -1.682391   -1.261856
     35          6           0       -9.860741   -1.342457   -1.416236
     36          6           0      -10.625752   -0.717107   -0.496525
     37          6           0      -12.069008   -0.388647   -0.687022
     38          6           0      -12.748272   -0.579371   -1.838202
     39          6           0      -14.184950   -0.272422   -2.050636
     40          6           0      -15.041556    0.171438   -1.115021
     41          6           0      -16.457354    0.402303   -1.474410
     42          6           0      -17.369777    0.765573   -0.563807
     43          6           0      -18.781159    0.947935   -0.963446
     44          6           0      -19.735065    1.232492   -0.067817
     45          6           0      -21.142409    1.371197   -0.498033
     46          6           0      -22.125588    1.586986    0.385077
     47          6           0      -23.529142    1.691452   -0.066602
     48          6           0      -24.530329    1.855796    0.807423
     49          6           0      -25.931111    1.937997    0.342864
     50          6           0      -26.941446    2.071413    1.211737
     51          6           0      -28.340130    2.143011    0.741049
     52          6           0      -29.353249    2.263777    1.601748
     53          1           0       28.690304    4.492436    0.183304
     54          1           0       28.415183    1.975786   -1.548458
     55          1           0       26.361525    3.646556    0.204072
     56          1           0       26.099167    1.128860   -1.532952
     57          1           0       24.061760    2.807799    0.224195
     58          1           0       23.787432    0.290740   -1.511609
     59          1           0       21.764329    1.978327    0.253299
     60          1           0       21.469165   -0.536274   -1.482039
     61          1           0       19.485629    1.165846    0.290409
     62          1           0       19.171206   -1.342447   -1.452872
     63          1           0       16.822314   -1.347356   -0.835055
     64          1           0       17.424324    1.143285    0.861722
     65          1           0       15.091359    1.147781    1.484866
     66          1           0       14.732627   -1.328847   -0.295132
     67          1           0       12.818470    0.401463    1.506688
     68          1           0       12.424315   -2.046116   -0.304049
     69          1           0       10.068558   -1.955143    0.267832
     70          1           0       10.757387    0.424768    2.087044
     71          1           0        8.406064    0.531659    2.647490
     72          1           0        7.968951   -1.814066    0.715243
     73          1           0        6.058520   -0.062718    2.523925
     74          1           0        5.607845   -2.341138    0.518870
     75          1           0        3.664353   -0.581769    2.306345
     76          1           0        3.231460   -2.768518    0.197748
     77          1           0        1.256772   -1.012811    1.954982
     78          1           0        0.874086   -3.086403   -0.274099
     79          1           0       -1.148930   -1.346349    1.443138
     80          1           0       -1.444613   -3.294964   -0.908272
     81          1           0       -3.517393   -1.582770    0.758137
     82          1           0       -3.689616   -3.409408   -1.705158
     83          1           0       -6.024692   -2.884842   -1.833856
     84          1           0       -5.679727   -1.259601    0.752059
     85          1           0       -8.056958   -0.778676    0.611184
     86          1           0       -8.008506   -2.226240   -2.098448
     87          1           0      -10.284824   -1.650752   -2.361139
     88          1           0      -10.202382   -0.432131    0.458299
     89          1           0      -12.570735    0.037354    0.172778
     90          1           0      -12.251146   -0.982223   -2.708795
     91          1           0      -14.559237   -0.447925   -3.056186
     92          1           0      -14.724535    0.344410   -0.093038
     93          1           0      -16.767181    0.250216   -2.506351
     94          1           0      -17.079699    0.904383    0.474947
     95          1           0      -19.050690    0.825161   -2.010409
     96          1           0      -19.479816    1.341164    0.983667
     97          1           0      -21.382541    1.276440   -1.554933
     98          1           0      -21.895229    1.669526    1.444715
     99          1           0      -23.749805    1.619540   -1.129452
    100          1           0      -24.315369    1.918970    1.871667
    101          1           0      -26.141093    1.881508   -0.723030
    102          1           0      -26.734887    2.123162    2.278305
    103          1           0      -28.556944    2.094978   -0.322874
    104          1           0      -29.178234    2.313179    2.672385
    105          1           0      -30.373279    2.312954    1.234456
    106          1           0       30.011194    3.611927   -0.804065
 ---------------------------------------------------------------------
 Rotational constants (GHZ):           0.1995426           0.0025113           0.0024977
 Standard basis: 6-31G(d,p) (6D, 7F)
 There are  1050 symmetry adapted cartesian basis functions of A   symmetry.
 There are  1050 symmetry adapted basis functions of A   symmetry.
  1050 basis functions,  1834 primitive gaussians,  1050 cartesian basis functions
   183 alpha electrons      183 beta electrons
       nuclear repulsion energy      3910.8009782132 Hartrees.
 NAtoms=  106 NActive=  106 NUniq=  106 SFac= 1.00D+00 NAtFMM=   60 NAOKFM=T Big=T
 Integral buffers will be    131072 words long.
 Raffenetti 2 integral format.
 Two-electron integral symmetry is turned on.
 One-electron integrals computed using PRISM.
 NBasis=  1050 RedAO= T EigKep=  7.43D-04  NBF=  1050
 NBsUse=  1050 1.00D-06 EigRej= -1.00D+00 NBFU=  1050
 ExpMin= 1.61D-01 ExpMax= 3.05D+03 ExpMxC= 4.57D+02 IAcc=3 IRadAn=         5 AccDes= 0.00D+00
 Harris functional with IExCor=  402 and IRadAn=       5 diagonalized for initial guess.
 HarFok:  IExCor=  402 AccDes= 0.00D+00 IRadAn=         5 IDoV= 1 UseB2=F ITyADJ=14
 ICtDFT=  3500011 ScaDFX=  1.000000  1.000000  1.000000  1.000000
 FoFCou: FMM=F IPFlag=           0 FMFlag=      100000 FMFlg1=        2001
         NFxFlg=           0 DoJE=T BraDBF=F KetDBF=T FulRan=T
         wScrn=  0.000000 ICntrl=       500 IOpCl=  0 I1Cent=   200000004 NGrid=           0
         NMat0=    1 NMatS0=      1 NMatT0=    0 NMatD0=    1 NMtDS0=    0 NMtDT0=    0
 Petite list used in FoFCou.
 Requested convergence on RMS density matrix=1.00D-08 within 128 cycles.
 Requested convergence on MAX density matrix=1.00D-06.
 Requested convergence on             energy=1.00D-06.
 No special actions if energy rises.
 Integral accuracy reduced to 1.0D-05 until final iterations.
 Initial convergence to 1.0D-05 achieved.  Increase integral accuracy.
 SCF Done:  E(RB3LYP) =  -2013.75295857     A.U. after   13 cycles
            NFock= 13  Conv=0.71D-08     -V/T= 2.0101
 Hyperfine terms turned off by default for NAtoms > 100.

 **********************************************************************

            Population analysis using the SCF Density.

 **********************************************************************

 Orbital symmetries:
       Occupied  (A) (A) (A) (A) (A) (A) (A) (A) (A) (A) (A) (A)
                 (A) (A) (A) (A) (A) (A) (A) (A) (A) (A) (A) (A)
                 (A) (A) (A) (A) (A) (A) (A) (A) (A) (A) (A) (A)
                 (A) (A) (A) (A) (A) (A) (A) (A) (A) (A) (A) (A)
                 (A) (A) (A) (A) (A) (A) (A) (A) (A) (A) (A) (A)
                 (A) (A) (A) (A) (A) (A) (A) (A) (A) (A) (A) (A)
                 (A) (A) (A) (A) (A) (A) (A) (A) (A) (A) (A) (A)
                 (A) (A) (A) (A) (A) (A) (A) (A) (A) (A) (A) (A)
                 (A) (A) (A) (A) (A) (A) (A) (A) (A) (A) (A) (A)
                 (A) (A) (A) (A) (A) (A) (A) (A) (A) (A) (A) (A)
                 (A) (A) (A) (A) (A) (A) (A) (A) (A) (A) (A) (A)
                 (A) (A) (A) (A) (A) (A) (A) (A) (A) (A) (A) (A)
                 (A) (A) (A) (A) (A) (A) (A) (A) (A) (A) (A) (A)
                 (A) (A) (A) (A) (A) (A) (A) (A) (A) (A) (A) (A)
                 (A) (A) (A) (A) (A) (A) (A) (A) (A) (A) (A) (A)
                 (A) (A) (A)
       Virtual   (A) (A) (A) (A) (A) (A) (A) (A) (A) (A) (A) (A)
                 (A) (A) (A) (A) (A) (A) (A) (A) (A) (A) (A) (A)
                 (A) (A) (A) (A) (A) (A) (A) (A) (A) (A) (A) (A)
                 (A) (A) (A) (A) (A) (A) (A) (A) (A) (A) (A) (A)
                 (A) (A) (A) (A) (A) (A) (A) (A) (A) (A) (A) (A)
                 (A) (A) (A) (A) (A) (A) (A) (A) (A) (A) (A) (A)
                 (A) (A) (A) (A) (A) (A) (A) (A) (A) (A) (A) (A)
                 (A) (A) (A) (A) (A) (A) (A) (A) (A) (A) (A) (A)
                 (A) (A) (A) (A) (A) (A) (A) (A) (A) (A) (A) (A)
                 (A) (A) (A) (A) (A) (A) (A) (A) (A) (A) (A) (A)
                 (A) (A) (A) (A) (A) (A) (A) (A) (A) (A) (A) (A)
                 (A) (A) (A) (A) (A) (A) (A) (A) (A) (A) (A) (A)
                 (A) (A) (A) (A) (A) (A) (A) (A) (A) (A) (A) (A)
                 (A) (A) (A) (A) (A) (A) (A) (A) (A) (A) (A) (A)
                 (A) (A) (A) (A) (A) (A) (A) (A) (A) (A) (A) (A)
                 (A) (A) (A) (A) (A) (A) (A) (A) (A) (A) (A) (A)
                 (A) (A) (A) (A) (A) (A) (A) (A) (A) (A) (A) (A)
                 (A) (A) (A) (A) (A) (A) (A) (A) (A) (A) (A) (A)
                 (A) (A) (A) (A) (A) (A) (A) (A) (A) (A) (A) (A)
                 (A) (A) (A) (A) (A) (A) (A) (A) (A) (A) (A) (A)
                 (A) (A) (A) (A) (A) (A) (A) (A) (A) (A) (A) (A)
                 (A) (A) (A) (A) (A) (A) (A) (A) (A) (A) (A) (A)
                 (A) (A) (A) (A) (A) (A) (A) (A) (A) (A) (A) (A)
                 (A) (A) (A) (A) (A) (A) (A) (A) (A) (A) (A) (A)
                 (A) (A) (A) (A) (A) (A) (A) (A) (A) (A) (A) (A)
                 (A) (A) (A) (A) (A) (A) (A) (A) (A) (A) (A) (A)
                 (A) (A) (A) (A) (A) (A) (A) (A) (A) (A) (A) (A)
                 (A) (A) (A) (A) (A) (A) (A) (A) (A) (A) (A) (A)
                 (A) (A) (A) (A) (A) (A) (A) (A) (A) (A) (A) (A)
                 (A) (A) (A) (A) (A) (A) (A) (A) (A) (A) (A) (A)
                 (A) (A) (A) (A) (A) (A) (A) (A) (A) (A) (A) (A)
                 (A) (A) (A) (A) (A) (A) (A) (A) (A) (A) (A) (A)
                 (A) (A) (A) (A) (A) (A) (A) (A) (A) (A) (A) (A)
                 (A) (A) (A) (A) (A) (A) (A) (A) (A) (A) (A) (A)
                 (A) (A) (A) (A) (A) (A) (A) (A) (A) (A) (A) (A)
                 (A) (A) (A) (A) (A) (A) (A) (A) (A) (A) (A) (A)
                 (A) (A) (A) (A) (A) (A) (A) (A) (A) (A) (A) (A)
                 (A) (A) (A) (A) (A) (A) (A) (A) (A) (A) (A) (A)
                 (A) (A) (A) (A) (A) (A) (A) (A) (A) (A) (A) (A)
                 (A) (A) (A) (A) (A) (A) (A) (A) (A) (A) (A) (A)
                 (A) (A) (A) (A) (A) (A) (A) (A) (A) (A) (A) (A)
                 (A) (A) (A) (A) (A) (A) (A) (A) (A) (A) (A) (A)
                 (A) (A) (A) (A) (A) (A) (A) (A) (A) (A) (A) (A)
                 (A) (A) (A) (A) (A) (A) (A) (A) (A) (A) (A) (A)
                 (A) (A) (A) (A) (A) (A) (A) (A) (A) (A) (A) (A)
                 (A) (A) (A) (A) (A) (A) (A) (A) (A) (A) (A) (A)
                 (A) (A) (A) (A) (A) (A) (A) (A) (A) (A) (A) (A)
                 (A) (A) (A) (A) (A) (A) (A) (A) (A) (A) (A) (A)
                 (A) (A) (A) (A) (A) (A) (A) (A) (A) (A) (A) (A)
                 (A) (A) (A) (A) (A) (A) (A) (A) (A) (A) (A) (A)
                 (A) (A) (A) (A) (A) (A) (A) (A) (A) (A) (A) (A)
                 (A) (A) (A) (A) (A) (A) (A) (A) (A) (A) (A) (A)
                 (A) (A) (A) (A) (A) (A) (A) (A) (A) (A) (A) (A)
                 (A) (A) (A) (A) (A) (A) (A) (A) (A) (A) (A) (A)
                 (A) (A) (A) (A) (A) (A) (A) (A) (A) (A) (A) (A)
                 (A) (A) (A) (A) (A) (A) (A) (A) (A) (A) (A) (A)
                 (A) (A) (A) (A) (A) (A) (A) (A) (A) (A) (A) (A)
                 (A) (A) (A) (A) (A) (A) (A) (A) (A) (A) (A) (A)
                 (A) (A) (A) (A) (A) (A) (A) (A) (A) (A) (A) (A)
                 (A) (A) (A) (A) (A) (A) (A) (A) (A) (A) (A) (A)
                 (A) (A) (A) (A) (A) (A) (A) (A) (A) (A) (A) (A)
                 (A) (A) (A) (A) (A) (A) (A) (A) (A) (A) (A) (A)
                 (A) (A) (A) (A) (A) (A) (A) (A) (A) (A) (A) (A)
                 (A) (A) (A) (A) (A) (A) (A) (A) (A) (A) (A) (A)
                 (A) (A) (A) (A) (A) (A) (A) (A) (A) (A) (A) (A)
                 (A) (A) (A) (A) (A) (A) (A) (A) (A) (A) (A) (A)
                 (A) (A) (A) (A) (A) (A) (A) (A) (A) (A) (A) (A)
                 (A) (A) (A) (A) (A) (A) (A) (A) (A) (A) (A) (A)
                 (A) (A) (A) (A) (A) (A) (A) (A) (A) (A) (A) (A)
                 (A) (A) (A) (A) (A) (A) (A) (A) (A) (A) (A) (A)
                 (A) (A) (A) (A) (A) (A) (A) (A) (A) (A) (A) (A)
                 (A) (A) (A) (A) (A) (A) (A) (A) (A) (A) (A) (A)
                 (A) (A) (A)
 The electronic state is 1-A.
 Alpha  occ. eigenvalues --  -10.19418 -10.19410 -10.19379 -10.19376 -10.19291
 Alpha  occ. eigenvalues --  -10.19290 -10.19274 -10.19268 -10.19259 -10.19239
 Alpha  occ. eigenvalues --  -10.19232 -10.19225 -10.19213 -10.19206 -10.19204
 Alpha  occ. eigenvalues --  -10.19198 -10.19196 -10.19193 -10.19193 -10.19188
 Alpha  occ. eigenvalues --  -10.19186 -10.19177 -10.19171 -10.19170 -10.19168
 Alpha  occ. eigenvalues --  -10.19165 -10.19163 -10.19155 -10.19153 -10.19148
 Alpha  occ. eigenvalues --  -10.19148 -10.19144 -10.19138 -10.19120 -10.19116
 Alpha  occ. eigenvalues --  -10.19114 -10.19113 -10.19105 -10.19099 -10.19093
 Alpha  occ. eigenvalues --  -10.19076 -10.19075 -10.19073 -10.19066 -10.19052
 Alpha  occ. eigenvalues --  -10.19047 -10.19016 -10.19002 -10.18989 -10.18910
 Alpha  occ. eigenvalues --  -10.17974 -10.17892  -0.82958  -0.82873  -0.82780
 Alpha  occ. eigenvalues --   -0.82534  -0.82328  -0.82068  -0.81712  -0.81335
 Alpha  occ. eigenvalues --   -0.80935  -0.80460  -0.79925  -0.79369  -0.78758
 Alpha  occ. eigenvalues --   -0.78108  -0.77413  -0.76669  -0.75910  -0.75119
 Alpha  occ. eigenvalues --   -0.74245  -0.73364  -0.72505  -0.71640  -0.70692
 Alpha  occ. eigenvalues --   -0.70048  -0.68860  -0.68235  -0.65135  -0.64424
 Alpha  occ. eigenvalues --   -0.62855  -0.62338  -0.61450  -0.60570  -0.59985
 Alpha  occ. eigenvalues --   -0.58841  -0.57736  -0.57236  -0.56930  -0.56862
 Alpha  occ. eigenvalues --   -0.56817  -0.56705  -0.56167  -0.55877  -0.55610
 Alpha  occ. eigenvalues --   -0.55314  -0.55123  -0.54992  -0.54942  -0.54484
 Alpha  occ. eigenvalues --   -0.52736  -0.52302  -0.51819  -0.50143  -0.50083
 Alpha  occ. eigenvalues --   -0.49031  -0.48547  -0.48389  -0.47814  -0.47727
 Alpha  occ. eigenvalues --   -0.47346  -0.46982  -0.46640  -0.46120  -0.45928
 Alpha  occ. eigenvalues --   -0.45353  -0.45124  -0.44669  -0.44459  -0.43805
 Alpha  occ. eigenvalues --   -0.43458  -0.43078  -0.42836  -0.41831  -0.41490
 Alpha  occ. eigenvalues --   -0.41082  -0.40796  -0.40556  -0.40294  -0.39662
 Alpha  occ. eigenvalues --   -0.39282  -0.39212  -0.38843  -0.38453  -0.38242
 Alpha  occ. eigenvalues --   -0.37928  -0.37860  -0.37776  -0.37546  -0.37312
 Alpha  occ. eigenvalues --   -0.37056  -0.36807  -0.36516  -0.36337  -0.36036
 Alpha  occ. eigenvalues --   -0.35854  -0.35727  -0.35418  -0.35281  -0.35182
 Alpha  occ. eigenvalues --   -0.35129  -0.35059  -0.35035  -0.34797  -0.34596
 Alpha  occ. eigenvalues --   -0.34545  -0.34416  -0.34192  -0.34151  -0.33968
 Alpha  occ. eigenvalues --   -0.33706  -0.33407  -0.33233  -0.33171  -0.33154
 Alpha  occ. eigenvalues --   -0.32718  -0.32117  -0.31431  -0.30723  -0.29942
 Alpha  occ. eigenvalues --   -0.29107  -0.28212  -0.27261  -0.26267  -0.25220
 Alpha  occ. eigenvalues --   -0.24118  -0.22979  -0.21831  -0.20657  -0.19464
 Alpha  occ. eigenvalues --   -0.18415  -0.17363  -0.16661
 Alpha virt. eigenvalues --   -0.08580  -0.07833  -0.06356  -0.05399  -0.04105
 Alpha virt. eigenvalues --   -0.02879  -0.01620  -0.00282   0.01159   0.02160
 Alpha virt. eigenvalues --    0.03366   0.04516   0.05406   0.06524   0.07285
 Alpha virt. eigenvalues --    0.07806   0.07903   0.08066   0.08300   0.08542
 Alpha virt. eigenvalues --    0.08568   0.08900   0.09004   0.09311   0.09504
 Alpha virt. eigenvalues --    0.09689   0.09751   0.09776   0.09902   0.10317
 Alpha virt. eigenvalues --    0.10959   0.11570   0.11658   0.11952   0.12107
 Alpha virt. eigenvalues --    0.12132   0.12259   0.12521   0.12582   0.12636
 Alpha virt. eigenvalues --    0.12972   0.13046   0.13121   0.13170   0.13633
 Alpha virt. eigenvalues --    0.13992   0.14126   0.14157   0.14217   0.14279
 Alpha virt. eigenvalues --    0.14385   0.14443   0.14636   0.14784   0.14945
 Alpha virt. eigenvalues --    0.15162   0.15384   0.15468   0.15602   0.15739
 Alpha virt. eigenvalues --    0.15909   0.16211   0.16551   0.17082   0.17828
 Alpha virt. eigenvalues --    0.18254   0.19041   0.19672   0.19735   0.19913
 Alpha virt. eigenvalues --    0.19976   0.20630   0.21125   0.21352   0.21991
 Alpha virt. eigenvalues --    0.22494   0.22638   0.22831   0.24776   0.25792
 Alpha virt. eigenvalues --    0.25919   0.26684   0.27214   0.27270   0.27711
 Alpha virt. eigenvalues --    0.28337   0.28507   0.28624   0.29028   0.30090
 Alpha virt. eigenvalues --    0.30745   0.31221   0.31474   0.31584   0.31838
 Alpha virt. eigenvalues --    0.32572   0.32714   0.32936   0.33258   0.33767
 Alpha virt. eigenvalues --    0.34268   0.34871   0.35049   0.35442   0.35993
 Alpha virt. eigenvalues --    0.36214   0.36410   0.36529   0.37229   0.38012
 Alpha virt. eigenvalues --    0.38149   0.38479   0.38953   0.39426   0.39685
 Alpha virt. eigenvalues --    0.40708   0.41106   0.41528   0.41685   0.41766
 Alpha virt. eigenvalues --    0.41824   0.42027   0.42163   0.43056   0.43636
 Alpha virt. eigenvalues --    0.44430   0.44952   0.45603   0.47035   0.47413
 Alpha virt. eigenvalues --    0.48102   0.48869   0.49437   0.50604   0.51352
 Alpha virt. eigenvalues --    0.51417   0.51628   0.51760   0.51979   0.52216
 Alpha virt. eigenvalues --    0.52380   0.52480   0.52522   0.52880   0.53351
 Alpha virt. eigenvalues --    0.53567   0.53724   0.53808   0.54338   0.54638
 Alpha virt. eigenvalues --    0.54910   0.54996   0.55336   0.55573   0.55674
 Alpha virt. eigenvalues --    0.56031   0.56367   0.56556   0.57053   0.57231
 Alpha virt. eigenvalues --    0.57407   0.57429   0.57539   0.57782   0.57980
 Alpha virt. eigenvalues --    0.58055   0.58121   0.58533   0.58726   0.58817
 Alpha virt. eigenvalues --    0.58855   0.58941   0.58987   0.59102   0.59233
 Alpha virt. eigenvalues --    0.59326   0.59477   0.59596   0.60312   0.60327
 Alpha virt. eigenvalues --    0.60422   0.60591   0.60903   0.60990   0.61168
 Alpha virt. eigenvalues --    0.61370   0.61804   0.61875   0.62039   0.62277
 Alpha virt. eigenvalues --    0.62400   0.62661   0.62930   0.62985   0.63204
 Alpha virt. eigenvalues --    0.63482   0.63597   0.64036   0.64309   0.64550
 Alpha virt. eigenvalues --    0.64617   0.65067   0.65112   0.65181   0.65228
 Alpha virt. eigenvalues --    0.65424   0.65476   0.65681   0.66051   0.66178
 Alpha virt. eigenvalues --    0.66217   0.66471   0.66532   0.66673   0.66851
 Alpha virt. eigenvalues --    0.67029   0.67458   0.67879   0.68082   0.68297
 Alpha virt. eigenvalues --    0.68659   0.69301   0.69669   0.69799   0.70125
 Alpha virt. eigenvalues --    0.70599   0.70787   0.71830   0.72648   0.73305
 Alpha virt. eigenvalues --    0.73792   0.74598   0.75140   0.75251   0.75632
 Alpha virt. eigenvalues --    0.75808   0.76188   0.78769   0.78789   0.78996
 Alpha virt. eigenvalues --    0.79490   0.79623   0.80167   0.80591   0.80942
 Alpha virt. eigenvalues --    0.81435   0.81680   0.81905   0.82033   0.82323
 Alpha virt. eigenvalues --    0.82945   0.83121   0.83621   0.83841   0.84163
 Alpha virt. eigenvalues --    0.84538   0.84629   0.84696   0.84833   0.84976
 Alpha virt. eigenvalues --    0.85165   0.85476   0.85606   0.85736   0.85959
 Alpha virt. eigenvalues --    0.86172   0.86306   0.86624   0.86729   0.87004
 Alpha virt. eigenvalues --    0.87188   0.87314   0.87367   0.87477   0.87624
 Alpha virt. eigenvalues --    0.87702   0.87822   0.88359   0.88414   0.88541
 Alpha virt. eigenvalues --    0.89040   0.89128   0.89481   0.89864   0.90770
 Alpha virt. eigenvalues --    0.90973   0.91016   0.91279   0.91512   0.91814
 Alpha virt. eigenvalues --    0.91986   0.92087   0.92405   0.92908   0.93110
 Alpha virt. eigenvalues --    0.93189   0.93580   0.93986   0.94475   0.94636
 Alpha virt. eigenvalues --    0.95134   0.95350   0.95674   0.96210   0.96668
 Alpha virt. eigenvalues --    0.97318   0.97517   0.97573   0.98525   1.00298
 Alpha virt. eigenvalues --    1.02189   1.02447   1.02896   1.03123   1.03360
 Alpha virt. eigenvalues --    1.03464   1.03820   1.04006   1.04337   1.04364
 Alpha virt. eigenvalues --    1.04737   1.05429   1.05534   1.05595   1.05943
 Alpha virt. eigenvalues --    1.06116   1.06737   1.07174   1.07533   1.07784
 Alpha virt. eigenvalues --    1.08407   1.08809   1.09002   1.09162   1.09554
 Alpha virt. eigenvalues --    1.10105   1.10397   1.10702   1.10711   1.11121
 Alpha virt. eigenvalues --    1.11463   1.12232   1.13315   1.15198   1.16860
 Alpha virt. eigenvalues --    1.17155   1.17838   1.18672   1.18736   1.19033
 Alpha virt. eigenvalues --    1.19881   1.20563   1.20977   1.21240   1.21388
 Alpha virt. eigenvalues --    1.22289   1.23018   1.24357   1.24424   1.26489
 Alpha virt. eigenvalues --    1.27348   1.27987   1.28041   1.28692   1.28788
 Alpha virt. eigenvalues --    1.29002   1.29108   1.29397   1.29830   1.29957
 Alpha virt. eigenvalues --    1.30072   1.30156   1.30366   1.30641   1.30721
 Alpha virt. eigenvalues --    1.30770   1.31086   1.31243   1.31445   1.31484
 Alpha virt. eigenvalues --    1.31623   1.31738   1.32072   1.32271   1.32404
 Alpha virt. eigenvalues --    1.32443   1.32462   1.32600   1.32800   1.32832
 Alpha virt. eigenvalues --    1.32939   1.33112   1.33431   1.33844   1.34036
 Alpha virt. eigenvalues --    1.34286   1.34755   1.34809   1.35035   1.36664
 Alpha virt. eigenvalues --    1.36882   1.37039   1.37428   1.37478   1.38625
 Alpha virt. eigenvalues --    1.39443   1.40150   1.40958   1.41121   1.41875
 Alpha virt. eigenvalues --    1.42919   1.42957   1.43453   1.43954   1.44349
 Alpha virt. eigenvalues --    1.44909   1.45373   1.45688   1.45905   1.46244
 Alpha virt. eigenvalues --    1.46496   1.46855   1.47202   1.47930   1.48077
 Alpha virt. eigenvalues --    1.48515   1.48636   1.48677   1.49263   1.49530
 Alpha virt. eigenvalues --    1.49732   1.50039   1.50320   1.50623   1.51448
 Alpha virt. eigenvalues --    1.51620   1.51724   1.51832   1.52222   1.52308
 Alpha virt. eigenvalues --    1.52755   1.53255   1.57386   1.61470   1.62733
 Alpha virt. eigenvalues --    1.67766   1.73999   1.75084   1.75361   1.75783
 Alpha virt. eigenvalues --    1.75845   1.76273   1.76388   1.76469   1.76516
 Alpha virt. eigenvalues --    1.76608   1.76690   1.76812   1.76952   1.77035
 Alpha virt. eigenvalues --    1.77165   1.77453   1.77591   1.77996   1.78124
 Alpha virt. eigenvalues --    1.78174   1.78548   1.78637   1.78811   1.79022
 Alpha virt. eigenvalues --    1.79487   1.83074   1.83191   1.83822   1.85588
 Alpha virt. eigenvalues --    1.85926   1.86064   1.86182   1.86276   1.86686
 Alpha virt. eigenvalues --    1.87896   1.88319   1.88963   1.89029   1.89804
 Alpha virt. eigenvalues --    1.89905   1.91207   1.91963   1.92142   1.92457
 Alpha virt. eigenvalues --    1.92502   1.92627   1.92725   1.92878   1.92958
 Alpha virt. eigenvalues --    1.93382   1.93686   1.93734   1.93902   1.94078
 Alpha virt. eigenvalues --    1.94405   1.94465   1.94780   1.94839   1.95331
 Alpha virt. eigenvalues --    1.95778   1.96193   1.96502   1.96628   1.96780
 Alpha virt. eigenvalues --    1.97443   1.98131   1.98186   1.98272   1.98822
 Alpha virt. eigenvalues --    1.99347   2.00751   2.02163   2.02570   2.03088
 Alpha virt. eigenvalues --    2.03365   2.03647   2.04182   2.04248   2.05136
 Alpha virt. eigenvalues --    2.05285   2.05753   2.06601   2.06719   2.07436
 Alpha virt. eigenvalues --    2.07985   2.08277   2.08392   2.08984   2.09633
 Alpha virt. eigenvalues --    2.10194   2.10544   2.10777   2.10912   2.11492
 Alpha virt. eigenvalues --    2.11825   2.12212   2.12504   2.13231   2.13774
 Alpha virt. eigenvalues --    2.14217   2.14685   2.15637   2.15672   2.16043
 Alpha virt. eigenvalues --    2.16328   2.16807   2.17584   2.18004   2.18115
 Alpha virt. eigenvalues --    2.18192   2.18450   2.19332   2.19518   2.20002
 Alpha virt. eigenvalues --    2.20490   2.20877   2.21259   2.21814   2.22274
 Alpha virt. eigenvalues --    2.22318   2.22528   2.22899   2.23425   2.23463
 Alpha virt. eigenvalues --    2.24313   2.24397   2.25500   2.25897   2.26657
 Alpha virt. eigenvalues --    2.26978   2.27684   2.27983   2.28894   2.29335
 Alpha virt. eigenvalues --    2.30002   2.30513   2.31336   2.31715   2.32627
 Alpha virt. eigenvalues --    2.33234   2.33749   2.34406   2.34902   2.35279
 Alpha virt. eigenvalues --    2.36065   2.36854   2.37122   2.37346   2.38044
 Alpha virt. eigenvalues --    2.38213   2.38575   2.40463   2.41556   2.41617
 Alpha virt. eigenvalues --    2.42214   2.43360   2.44076   2.44233   2.44561
 Alpha virt. eigenvalues --    2.44761   2.45017   2.45483   2.46158   2.46428
 Alpha virt. eigenvalues --    2.46627   2.46956   2.47325   2.47680   2.47963
 Alpha virt. eigenvalues --    2.48187   2.48312   2.48522   2.48605   2.48794
 Alpha virt. eigenvalues --    2.48986   2.49776   2.50046   2.50316   2.50421
 Alpha virt. eigenvalues --    2.50723   2.51224   2.51266   2.51456   2.51513
 Alpha virt. eigenvalues --    2.51715   2.52135   2.52333   2.52612   2.52772
 Alpha virt. eigenvalues --    2.52973   2.53551   2.53679   2.53968   2.54380
 Alpha virt. eigenvalues --    2.54499   2.54529   2.55265   2.55651   2.55839
 Alpha virt. eigenvalues --    2.56162   2.56311   2.56368   2.56879   2.56955
 Alpha virt. eigenvalues --    2.57732   2.57908   2.58260   2.58503   2.58747
 Alpha virt. eigenvalues --    2.59192   2.59430   2.59579   2.60102   2.60210
 Alpha virt. eigenvalues --    2.60578   2.60820   2.61424   2.61587   2.61792
 Alpha virt. eigenvalues --    2.62239   2.62623   2.62882   2.63455   2.63681
 Alpha virt. eigenvalues --    2.63914   2.64024   2.64936   2.65030   2.65304
 Alpha virt. eigenvalues --    2.65948   2.66230   2.66721   2.66831   2.67054
 Alpha virt. eigenvalues --    2.67310   2.67503   2.67682   2.68010   2.68285
 Alpha virt. eigenvalues --    2.68606   2.68803   2.69113   2.69502   2.69669
 Alpha virt. eigenvalues --    2.70025   2.70108   2.70234   2.70306   2.70638
 Alpha virt. eigenvalues --    2.70663   2.71151   2.71444   2.71471   2.71834
 Alpha virt. eigenvalues --    2.71945   2.72085   2.72485   2.73427   2.74211
 Alpha virt. eigenvalues --    2.76025   2.76796   2.78622   2.78979   2.79789
 Alpha virt. eigenvalues --    2.80510   2.82445   2.82687   2.83834   2.84325
 Alpha virt. eigenvalues --    2.85574   2.86251   2.86422   2.86603   2.86767
 Alpha virt. eigenvalues --    2.88209   2.88897   2.89201   2.90180   2.90554
 Alpha virt. eigenvalues --    2.91014   2.91139   2.91586   2.91684   2.92110
 Alpha virt. eigenvalues --    2.92467   2.92766   2.93127   2.93629   2.94405
 Alpha virt. eigenvalues --    2.94753   2.95414   2.95515   2.96165   2.96801
 Alpha virt. eigenvalues --    2.97273   2.97364   2.97903   2.98395   2.98970
 Alpha virt. eigenvalues --    2.99297   2.99689   2.99730   2.99860   3.00159
 Alpha virt. eigenvalues --    3.00531   3.01025   3.01136   3.02907   3.03378
 Alpha virt. eigenvalues --    3.05376   3.11001   3.15998   3.16271   3.16503
[...]
 .00000065,-0.00000002,-0.00000057,0.00000044,0.00000076,-0.00000187,0.
 00000076,-0.00000044,0.00000047,-0.00000035,0.00000187,0.00000048,-0.0
 0000051,-0.00000059,-0.00000007,0.00000057,0.00000119,-0.00000179,0.00
 000091,-0.00000040,0.00000062,-0.00000040,0.00000241,0.00000047,-0.000
 00075,-0.00000085,-0.00000012,0.00000070,0.00000170,-0.00000224,0.0000
 0137,-0.00000044,0.00000096,-0.00000053,0.00000272,0.00000102,-0.00000
 131,0.00000105,0.00000153,-0.00000033,0.00000366,0.00000164,-0.0000022
 0,0.00000079,0.00000014,-0.00000243,0.00000510,0.00000263,-0.00000245,
 0.00000453,0.00001095,0.00000894,0.00000646,0.00000360,-0.00000478,-0.
 00001291,-0.00003094,-0.00003446,0.00000952,0.00002159,-0.00000019,-0.
 00003784,0.00006514,0.00008437,0.00016484,-0.00006813,-0.00024994,-0.0
 0128513,-0.00225954,-0.00377867,-0.01412042,0.00638626,0.00103942,-0.0
 9093287,0.06601656,-0.00000089,0.00000049,-0.00000008,0.00000052,-0.00
 000117,0.00000041,-0.00000037,0.00000101,-0.00000043,0.00000021,-0.000
 00121,0.00000049,-0.00000017,0.00000097,-0.00000042,0.00000013,-0.0000
 0129,0.00000055,-0.00000010,0.00000100,-0.00000043,0.00000007,-0.00000
 134,0.00000054,-0.00000005,0.00000091,-0.00000038,0.00000005,-0.000001
 78,0.00000074,-0.00000014,0.00000117,-0.00000047,0.00000138,0.00000119
 ,-0.00000070,-0.00000118,-0.00000063,0.00000042,0.00000026,-0.00000157
 ,0.00000062,-0.00000027,0.00000112,-0.00000045,0.00000013,-0.00000238,
 0.00000097,-0.00000027,0.00000175,-0.00000071,0.00000198,0.00000159,-0
 .00000098,-0.00000179,-0.00000094,0.00000064,0.00000044,-0.00000210,0.
 00000084,-0.00000047,0.00000167,-0.00000068,0.00000027,-0.00000244,0.0
 0000097,-0.00000027,0.00000186,-0.00000077,0.00000005,-0.00000279,0.00
 000117,-0.00000005,0.00000209,-0.00000094,-0.00000020,-0.00000316,0.00
 000134,0.00000020,0.00000236,-0.00000111,-0.00000044,-0.00000344,0.000
 00168,0.00000056,0.00000239,-0.00000122,-0.00000118,-0.00000581,0.0000
 0235,0.00000047,0.00000325,-0.00000140,0.00000369,0.00000514,-0.000002
 80,-0.00000267,-0.00000273,0.00000138,-0.00000083,-0.00000684,0.000003
 71,-0.00000020,0.00000427,-0.00000235,0.00000503,0.00000549,-0.0000051
 8,-0.00000391,-0.00000298,0.00000265,-0.00000056,-0.00000793,0.0000069
 9,-0.00000117,0.00000445,-0.00000384,0.00000378,0.00000367,-0.00000783
 ,-0.00000378,-0.00000484,0.00000596,0.00000572,0.00001479,-0.00000241,
 -0.00000438,-0.00001129,0.00000721,-0.00000996,-0.00001488,-0.00004999
 ,-0.00000544,-0.00001340,0.00002272,0.00005036,0.00018714,0.00012100,-
 0.00007276,-0.00007064,0.00001491,-0.00027912,-0.00042830,-0.00096609,
 -0.00086079,-0.00005126,0.00056052,0.00203980,0.00770288,0.00397583,-0
 .01849125,0.00589104,0.00504550,0.02499665,0.00649908,-0.04535677,0.00
 000004,0.,0.00000001,-0.00000001,0.00000018,-0.00000005,0.,0.00000005,
 0.,-0.00000004,0.00000021,-0.00000008,0.,0.00000007,-0.00000001,-0.000
 00004,0.00000025,-0.00000010,0.,0.00000007,-0.00000002,-0.00000004,0.0
 0000029,-0.00000011,0.00000002,0.00000009,-0.00000004,-0.00000015,0.00
 000035,-0.00000012,0.00000011,-0.00000010,0.00000003,-0.00000037,-0.00
 000008,0.00000009,0.00000014,0.,-0.00000002,-0.00000009,0.00000030,-0.
 00000010,0.00000004,0.00000012,-0.00000004,-0.00000019,0.00000042,-0.0
 0000014,0.00000011,-0.00000015,0.00000006,-0.00000047,-0.00000009,0.00
 000013,0.00000018,0.00000003,-0.00000002,-0.00000013,0.00000040,-0.000
 00014,0.00000003,0.00000018,-0.00000005,-0.00000011,0.00000054,-0.0000
 0019,0.,0.00000024,-0.00000008,-0.00000011,0.00000063,-0.00000023,0.,0
 .00000027,-0.00000008,-0.00000013,0.00000074,-0.00000027,0.,0.00000031
 ,-0.00000006,-0.00000014,0.00000084,-0.00000032,0.00000002,0.00000032,
 -0.00000017,-0.00000043,0.00000099,-0.00000032,0.00000023,-0.00000028,
 0.00000032,-0.00000111,-0.00000020,0.00000038,0.00000041,0.00000004,-0
 .00000015,-0.00000068,0.00000100,-0.00000034,0.00000029,-0.00000029,0.
 00000042,-0.00000147,-0.00000012,0.00000059,0.00000066,0.00000020,-0.0
 0000003,-0.00000102,0.00000138,-0.00000053,0.00000035,-0.00000050,0.00
 000045,-0.00000156,-0.00000026,0.00000111,-0.00000018,0.00000009,0.000
 00123,-0.00000217,-0.00000049,0.00000179,-0.00000097,-0.00000171,-0.00
 000036,-0.00000302,-0.00000020,0.00000298,0.00000346,0.00000957,0.0000
 1279,-0.00000477,-0.00000162,0.00000372,-0.00001171,-0.00003463,-0.000
 03877,-0.00000321,0.00000550,0.00002097,0.00008232,0.00004625,0.000075
 39,-0.00036354,-0.00012905,-0.00004647,-0.00135891,-0.00385735,-0.0029
 9255,0.01729078,-0.00567717,0.00165340,-0.02298937,-0.01006325,0.03793
 242,-0.26993640,0.12425377,-0.01544570,-0.01881528,0.01614832,-0.00323
 052,-0.00149336,-0.00326085,0.00334950,-0.00074420,0.00107461,-0.00030
 002,-0.00018792,-0.00039999,-0.00002407,-0.00012148,0.00010179,-0.0000
 3517,0.00001852,-0.00004510,0.00006251,-0.00003708,0.00002885,-0.00000
 493,0.00001823,-0.00003470,0.00000162,-0.00003815,-0.00001660,0.000012
 40,0.00003307,0.00001976,-0.00001179,-0.00000589,0.00002981,-0.0000118
 9,0.00000448,-0.00003144,0.00001237,-0.00000742,0.00001072,-0.00000337
 ,0.00000592,-0.00001634,0.00000587,-0.00001602,-0.00001024,0.00000677,
 0.00001664,0.00001465,-0.00000881,-0.00000090,0.00001567,-0.00000657,-
 0.00000031,-0.00002044,0.00000871,-0.00000132,0.00000754,-0.00000307,0
 .00000123,-0.00001178,0.00000481,-0.00000157,0.00000739,-0.00000289,0.
 00000136,-0.00001034,0.00000412,-0.00000193,0.00000642,-0.00000244,0.0
 0000168,-0.00000898,0.00000356,-0.00000225,0.00000555,-0.00000212,0.00
 000204,-0.00000763,0.00000305,-0.00000259,0.00000492,-0.00000161,0.000
 00259,-0.00000648,0.00000231,-0.00000685,-0.00000395,0.00000293,0.0000
 0730,0.00000502,-0.00000367,-0.00000122,0.00000684,-0.00000356,0.00000
 093,-0.00000762,0.00000425,-0.00000433,-0.00000281,0.00000320,0.000005
 14,0.00000428,-0.00000464,-0.00000054,0.00000395,-0.00000326,-0.000000
 08,-0.00000559,0.00000499,-0.00000223,-0.00000194,0.00000269,0.0000037
 2,0.00000387,-0.00000519,-0.00000168,-0.00000220,0.00000235,0.00000263
 ,0.00000299,-0.00000333,-0.00000201,-0.00000200,0.00000251,0.00000274,
 0.00000223,-0.00000314,-0.00000233,-0.00000155,0.00000221,0.00000300,0
 .00000182,-0.00000268,-0.00000240,-0.00000122,0.00000190,0.00000294,0.
 00000160,-0.00000249,-0.00000246,-0.00000103,0.00000177,0.00000297,0.0
 0000142,-0.00000229,-0.00000267,-0.00000073,0.00000171,0.00000311,0.00
 000107,-0.00000198,-0.00000279,0.00000082,0.00000020,0.00384053,-0.002
 80034,0.00093404,0.00085955,-0.00053326,-0.00096175,0.00015975,0.00006
 176,-0.00009327,0.00000617,-0.00005746,0.00004489,0.00001459,0.0000166
 3,-0.00000539,0.00000009,-0.00000412,-0.00000948,-0.00000072,0.0000097
 6,-0.00000389,0.00000113,0.00000394,0.00000155,-0.00000192,0.00000632,
 -0.00000209,0.00000207,0.00000111,-0.00000118,-0.00000676,-0.00000162,
 0.00000176,0.00000064,-0.00000241,0.00000120,-0.00000236,0.00000516,-0
 .00000173,0.00000032,0.00000182,-0.00000070,-0.00000114,0.00000364,-0.
 00000131,0.00000130,0.00000072,-0.00000045,-0.00000378,-0.00000104,0.0
 0000105,0.00000053,-0.00000140,0.00000053,-0.00000143,0.00000350,-0.00
 000123,0.00000007,0.00000135,-0.00000053,-0.00000049,0.00000297,-0.000
 00117,0.,0.00000118,-0.00000048,-0.00000044,0.00000256,-0.00000098,0.0
 0000002,0.00000102,-0.00000041,-0.00000038,0.00000218,-0.00000085,0.00
 000003,0.00000090,-0.00000035,-0.00000038,0.00000186,-0.00000071,0.000
 00009,0.00000071,-0.00000037,-0.00000046,0.00000136,-0.00000052,0.0000
 0058,0.00000007,-0.00000013,-0.00000171,-0.00000048,0.00000058,0.00000
 025,-0.00000054,0.00000020,-0.00000072,0.00000111,-0.00000048,0.000000
 54,0.00000002,0.,-0.00000139,-0.00000031,0.00000057,0.00000023,-0.0000
 0046,0.00000010,-0.00000063,0.00000093,-0.00000052,0.00000056,0.,0.000
 00006,-0.00000132,-0.00000037,0.00000079,-0.00000018,-0.00000025,0.000
 00023,-0.00000079,-0.00000042,0.00000066,-0.00000019,-0.00000013,0.000
 00026,-0.00000067,-0.00000032,0.00000059,-0.00000015,-0.00000011,0.000
 00019,-0.00000060,-0.00000031,0.00000054,-0.00000013,-0.00000011,0.000
 00014,-0.00000056,-0.00000031,0.00000051,-0.00000011,-0.00000010,0.000
 00010,-0.00000051,-0.00000031,0.00000045,-0.00000011,-0.00000012,0.000
 00007,-0.00000036,-0.00000033,0.00000035,0.,-0.00000016,0.00000008,-0.
 00000004,0.00000021,-0.00000017,0.28644683,0.12838069,-0.12742224,0.02
 059385,-0.01398991,0.01011071,-0.00034279,-0.00133163,0.00043721,0.004
 85099,-0.00029842,0.00078684,-0.00018755,-0.00033305,-0.00035761,-0.00
 040153,0.00004001,0.00005763,-0.00006045,-0.00004585,0.00001928,0.0001
 2621,0.00003216,0.00001906,-0.00000903,-0.00003056,-0.00001825,-0.0000
 1522,0.00001591,0.00000349,-0.00000484,-0.00000634,0.00001519,-0.00000
 101,0.00000427,-0.00000838,0.00000231,-0.00000876,-0.00000372,0.000002
 33,0.00000612,0.00000328,-0.00000240,-0.00000532,-0.00000256,0.0000016
 6,0.00000308,0.00000037,-0.00000075,-0.00000105,0.00000373,-0.00000149
 ,0.00000121,-0.00000166,0.00000046,-0.00000245,-0.00000161,0.00000100,
 0.00000184,0.00000119,-0.00000078,-0.00000170,-0.00000112,0.00000067,0
 .00000122,0.00000094,-0.00000065,-0.00000109,-0.00000091,0.00000057,0.
 00000080,0.00000076,-0.00000046,-0.00000066,-0.00000075,0.00000039,0.0
 0000046,0.00000063,-0.00000030,-0.00000037,-0.00000062,0.00000026,0.00
 000016,0.00000054,-0.00000026,-0.00000021,-0.00000056,0.00000032,-0.00
 000020,0.00000004,0.00000003,0.00000030,0.00000034,-0.00000021,-0.0000
 0007,-0.00000004,0.,-0.00000003,-0.00000032,0.00000019,-0.00000014,-0.
 00000003,0.00000009,0.00000019,0.00000013,-0.00000013,-0.00000005,0.00
 000006,-0.00000007,0.00000003,-0.00000012,0.00000013,-0.00000012,-0.00
 000009,0.00000015,0.00000010,0.00000007,-0.00000008,-0.00000006,0.0000
 0003,0.00000006,0.00000017,-0.00000001,-0.00000003,-0.00000009,0.00000
 002,0.,0.00000014,0.00000010,-0.00000003,-0.00000003,-0.00000003,0.000
 00001,0.00000003,0.00000012,-0.00000008,-0.00000003,-0.00000006,0.0000
 0007,0.00000005,0.00000008,-0.00000005,-0.00000003,-0.00000007,0.00000
 006,0.00000005,0.00000005,-0.00000005,-0.00000010,-0.00000012,0.000000
 02,0.00000020,-0.00000007,-0.00000002,-0.00000009,0.00000002,0.,0.0227
 0251,-0.00880680,0.00117838,-0.00023202,0.00007945,-0.00288219,-0.0003
 9723,0.00028117,-0.00017542,0.00008692,0.00001413,0.00004092,-0.000005
 01,0.00001329,0.00000564,-0.00000344,-0.00001190,-0.00002525,-0.000002
 02,0.00000360,-0.00000092,0.00000185,0.00000358,0.00000745,-0.00000120
 ,0.00000181,0.00000007,0.00000059,-0.00000051,-0.00000108,-0.00000108,
 0.00000038,0.00000012,0.00000096,0.00000031,0.00000047,-0.00000082,0.0
 0000097,-0.00000012,0.00000018,0.00000022,0.00000020,-0.00000026,0.000
 00047,-0.00000004,0.00000024,-0.00000002,0.00000006,-0.00000039,0.0000
 0007,0.00000010,0.00000030,0.00000002,0.00000003,-0.00000026,0.0000003
 9,-0.00000008,0.00000004,0.00000005,0.,-0.00000007,0.00000023,-0.00000
 004,0.,0.00000004,0.00000001,-0.00000006,0.00000018,-0.00000005,0.,0.0
 0000003,0.,-0.00000004,0.00000015,-0.00000005,0.,0.,0.,-0.00000003,0.0
 0000012,-0.00000003,0.,-0.00000002,0.,-0.00000004,0.00000007,-0.000000
 04,0.00000007,0.00000004,-0.00000003,-0.00000004,0.00000007,-0.0000000
 3,0.00000004,-0.00000002,0.,-0.00000007,0.00000008,-0.00000003,0.00000
 004,0.00000002,-0.00000002,-0.00000004,0.00000002,-0.00000003,0.000000
 03,-0.00000001,-0.00000001,-0.00000005,0.00000006,-0.00000003,0.000000
 02,0.,-0.00000001,-0.00000002,0.00000001,-0.00000002,-0.00000002,-0.00
 000003,-0.00000001,-0.00000005,-0.00000003,0.00000002,0.,-0.00000002,-
 0.00000001,-0.00000006,-0.00000006,0.00000001,-0.00000001,-0.00000003,
 0.,-0.00000003,-0.00000004,0.,0.,0.,0.,-0.00000002,-0.00000002,0.,0.,0
 .,0.00000001,0.,0.00000001,-0.00000001,0.,0.00000003,0.00000002,-0.000
 00002,0.00000006,0.,0.00000003,0.00000005,-0.00000002,-0.00000011,0.00
 000005,-0.00000001,-0.13458008,0.12477728,-0.01716465,0.02122149,-0.03
 735845,0.00932557,-0.00492696,0.00481437,0.00254523,0.00514470,0.00906
 425,0.00027214,-0.00039635,0.00035145,-0.00005198,-0.00039146,-0.00127
 180,-0.00000931,-0.00006994,-0.00004252,0.00006269,0.00012617,0.000243
 45,-0.00000636,-0.00000849,0.00001362,-0.00000005,-0.00001467,-0.00005
 986,-0.00000122,0.00000009,-0.00000232,-0.00000078,-0.00000497,0.00001
 273,-0.00000112,-0.00000166,-0.00000053,0.00000277,0.00000574,-0.00000
 427,-0.00000146,-0.00000309,0.00000130,0.00000124,0.00000333,-0.000002
 13,0.00000110,0.00000127,-0.00000104,-0.00000213,-0.00000389,0.0000017
 9,-0.00000038,-0.00000180,0.00000061,0.00000102,0.00000373,-0.00000192
 ,-0.00000056,-0.00000172,0.00000070,0.00000048,0.00000222,-0.00000115,
 -0.00000028,-0.00000160,0.00000059,0.00000023,0.00000192,-0.00000094,-
 0.00000006,-0.00000135,0.00000049,0.,0.00000163,-0.00000077,0.00000013
 ,-0.00000114,0.00000041,-0.00000015,0.00000137,-0.00000065,0.00000029,
 -0.00000098,0.00000030,-0.00000029,0.00000118,-0.00000050,0.00000108,0
 .00000059,-0.00000050,-0.00000120,-0.00000094,0.00000062,0.00000017,-0
 .00000105,0.00000052,-0.00000011,0.00000129,-0.00000077,0.00000069,0.0
 0000042,-0.00000053,-0.00000086,-0.00000075,0.00000077,0.00000007,-0.0
 0000063,0.00000050,0.00000003,0.00000093,-0.00000086,0.00000037,0.0000
 0029,-0.00000045,-0.00000063,-0.00000066,0.00000086,0.00000028,0.00000
 037,-0.00000042,-0.00000046,-0.00000051,0.00000054,0.00000033,0.000000
 31,-0.00000042,-0.00000047,-0.00000038,0.00000052,0.00000037,0.0000002
 4,-0.00000037,-0.00000048,-0.00000031,0.00000043,0.00000038,0.00000019
 ,-0.00000032,-0.00000048,-0.00000026,0.00000039,0.00000038,0.00000015,
 -0.00000029,-0.00000047,-0.00000022,0.00000035,0.00000040,0.00000010,-
 0.00000027,-0.00000054,-0.00000013,0.00000029,0.00000042,-0.00000018,-
 0.00000002,-0.00969124,0.00505745,0.00167675,-0.00108677,-0.00283637,-
 0.00557630,0.00009779,-0.00024533,-0.00019746,-0.00001525,0.00006289,0
 .00012021,0.00000366,0.00000236,0.00002343,-0.00000978,-0.00002513,-0.
 00006172,0.00000106,-0.00000271,0.00000161,0.00000242,0.00000715,0.000
 01883,0.00000103,-0.00000105,0.00000186,-0.00000099,-0.00000114,-0.000
 00220,0.00000152,0.00000022,-0.00000005,-0.00000021,0.00000102,0.00000
 145,0.00000076,-0.00000100,0.00000075,0.,-0.00000004,0.00000080,0.0000
 0033,-0.00000062,0.00000053,-0.00000026,0.,0.00000030,0.00000077,0.000
 00021,-0.00000002,-0.00000017,0.00000030,0.00000012,0.00000035,-0.0000
 0063,0.00000038,0.,-0.00000016,0.00000022,0.00000012,-0.00000050,0.000
 00032,0.00000001,-0.00000013,0.00000017,0.00000010,-0.00000042,0.00000
 025,0.00000001,-0.00000012,0.00000014,0.00000009,-0.00000035,0.0000002
 1,0.,-0.00000010,0.00000011,0.00000008,-0.00000030,0.00000017,-0.00000
 001,-0.00000008,0.00000010,0.00000009,-0.00000022,0.00000013,-0.000000
 11,-0.00000001,0.00000007,0.00000029,0.00000007,-0.00000006,-0.0000000
 5,0.00000011,0.,0.00000014,-0.00000018,0.00000011,-0.00000010,0.000000
 01,0.00000002,0.00000025,0.00000005,-0.00000007,-0.00000004,0.00000009
 ,0.,0.00000012,-0.00000015,0.00000011,-0.00000010,0.00000002,0.,0.0000
 0024,0.00000006,-0.00000011,0.00000003,0.00000005,-0.00000002,0.000000
 15,0.00000009,-0.00000011,0.00000004,0.00000004,-0.00000003,0.00000012
 ,0.00000007,-0.00000009,0.00000003,0.00000003,-0.00000003,0.00000010,0
 .00000006,-0.00000008,0.00000003,0.00000003,-0.00000001,0.00000009,0.0
 0000006,-0.00000007,0.00000003,0.00000003,-0.00000001,0.00000008,0.000
 00005,-0.00000006,0.00000004,0.00000003,-0.00000001,0.00000008,0.00000
 004,-0.00000004,0.00000002,0.00000003,0.,0.00000005,-0.00000004,0.0000
 0003,0.01572153,-0.02269952,0.02823158\\-0.00000005,-0.00000143,0.0000
 0069,0.00000036,0.00000139,-0.00000057,0.00000229,-0.00000197,0.000000
 55,-0.00000200,0.00000203,-0.00000050,0.00000202,-0.00000185,0.0000005
 2,-0.00000178,0.00000174,-0.00000043,0.00000056,-0.00000200,0.00000081
 ,-0.00000043,0.00000225,-0.00000107,-0.00000046,-0.00000226,0.00000115
 ,0.00000057,0.00000067,-0.00000026,0.00000012,0.00000180,-0.00000084,0
 .00000002,-0.00000171,0.00000068,-0.00000295,-0.00000115,0.00000102,0.
 00000376,0.00000296,-0.00000226,-0.00000346,-0.00000288,0.00000164,0.0
 0000342,0.00000132,-0.00000071,-0.00000080,0.00000173,-0.00000102,0.00
 000017,-0.00000188,0.00000077,-0.00000156,-0.00000072,0.00000040,0.000
 00229,0.00000248,-0.00000138,-0.00000188,-0.00000278,0.00000042,0.0000
 0173,0.00000228,-0.00000148,-0.00000107,-0.00000222,0.00000058,0.00000
 067,0.00000203,-0.00000148,-0.00000047,-0.00000225,0.00000054,0.000000
 18,0.00000194,-0.00000140,-0.00000054,-0.00000237,0.00000051,0.,0.0000
 0232,-0.00000083,-0.00000099,-0.00000277,0.00000025,-0.00000076,0.0000
 0100,-0.00000053,0.00000126,-0.00000002,-0.00000094,0.00000091,-0.0000
 0095,0.00000044,-0.00000210,-0.00000022,0.00000016,-0.00000052,0.00000
 024,-0.00000107,0.00000128,0.00000049,0.00000034,0.00000226,-0.0000012
 0,0.00000048,-0.00000216,-0.00000063,0.00000018,0.00000011,0.00000090,
 -0.00000043,0.00000056,0.00000049,-0.00000113,-0.00000025,-0.00000184,
 0.00000255,0.00000098,0.00000137,-0.00000184,-0.00000110,-0.00000098,0
 .00000171,0.00000167,0.00000099,-0.00000111,-0.00000205,-0.00000001,0.
 00000114,0.00000259,0.00000020,-0.00000064,-0.00000279,0.00000079,0.00
 000070,0.00000326,-0.00000047,-0.00000036,-0.00000320,0.00000108,0.000
 00050,0.00000317,-0.00000005,-0.00000076,-0.00000310,0.00000070,0.0000
 0076,0.00000107,0.00000100,-0.00000107,-0.00000071,-0.00000087,0.00000
 132,0.00000053,0.00000036,-0.00000011,0.00000042,-0.00000073,0.0000002
 7,-0.00000077,0.00000102,-0.00000021,0.00000080,-0.00000104,0.00000032
 ,-0.00000066,0.00000100,-0.00000025,0.00000071,-0.00000097,0.00000029,
 -0.00000054,0.00000098,-0.00000028,0.00000030,-0.00000106,0.00000037,-
 0.00000078,0.00000106,0.00000008,-0.00000014,-0.00000038,0.00000007,-0
 .00000040,-0.00000021,-0.00000026,0.00000034,-0.00000015,-0.00000027,0
 .00000040,0.00000025,-0.00000013,0.00000034,-0.00000100,0.00000087,-0.
 00000028,0.00000145,0.00000052,-0.00000037,-0.00000061,0.00000028,-0.0
 0000060,-0.00000062,-0.00000082,0.00000058,-0.00000016,-0.00000070,0.0
 0000025,0.00000052,-0.00000004,0.00000084,-0.00000074,0.00000184,-0.00
 000008,0.00000132,-0.00000014,0.00000036,-0.00000120,0.00000078,-0.000
 00032,0.00000129,-0.00000006,0.00000043,-0.00000111,0.00000078,-0.0000
 0038,0.00000133,-0.00000003,0.00000048,-0.00000102,0.00000077,-0.00000
 038,0.00000135,-0.00000002,0.00000041,-0.00000098,0.00000072,-0.000000
 55,0.00000072,-0.00000140,0.00000007,-0.00000032,0.00000047,-0.0000004
 5,0.00000018,0.00000057,0.00000062,0.00000082,0.00000111,-0.00000027,0
 .00000092,0.00000020,-0.00000018,-0.00000077,-0.00000038,-0.00000062,-
 0.00000013,0.00000029,0.00000046,0.00000005,-0.00000081,-0.00000036,0.
 00000013,-0.00000107,0.00000020,-0.00000041,0.00000038,-0.00000042,-0.
 00000066,0.00000025,0.00000126,0.00000104,-0.00000020,-0.00000110,-0.0
 0000072,0.00000055,0.00000097,0.00000012,-0.00000086,-0.00000117,-0.00
 000056,0.00000045,0.00000097,-0.00000003,-0.00000064,-0.00000123,-0.00
 000036,0.00000037,0.00000102,-0.00000015,-0.00000043,-0.00000128,-0.00
 000012,0.00000031,0.00000103,-0.00000016,-0.00000027,-0.00000127,0.,0.
 00000037,0.00000107,-0.00000011,-0.00000012,-0.00000074,0.00000002,0.0
 0000033,-0.00000025,0.00000055,-0.00000014,0.00000018,0.00000067,-0.00
 000045,0.00000045,0.00000061,-0.00000024\\\@


      HUMANKIND PERIODICALLY GOES THROUGH A SPEEDUP OF ITS AFFAIRS, 
      THEREBY EXPERIENCING THE RACE BETWEEN THE RENEWABLE VITALITY
      OF THE LIVING, AND THE BECKONING VITIATION OF DECADENCE.
      IN THIS PERIODIC RACE, ANY PAUSE BECOMES A LUXURY.
      ONLY THEN CAN ONE REFLECT THAT ALL IS PERMITTED;
      ALL IS POSSIBLE.

                              -- THE APOCRYPHA OF MUAD'DIB
                                 CHILDREN OF DUNE, BY FRANK HERBERT
 Job cpu time:       0 days  6 hours  6 minutes 31.6 seconds.
 Elapsed time:       0 days  6 hours  6 minutes 33.7 seconds.
 File lengths (MBytes):  RWF=  10531 Int=      0 D2E=      0 Chk=     92 Scr=      1
 Normal termination of Gaussian 16 at Sun Oct 29 18:10:52 2023.
