 Entering Gaussian System, Link 0=g16
 Input=./com/27.com
 Output=./log/27.log
 Initial command:
 /home/shohei/gaussian/g16/l1.exe "/home/shohei/gaussian/scratch/Gau-26562.inp" -scrdir="/home/shohei/gaussian/scratch/"
 Entering Link 1 = /home/shohei/gaussian/g16/l1.exe PID=     26564.
  
 Copyright (c) 1988-2017, Gaussian, Inc.  All Rights Reserved.
  
 This is part of the Gaussian(R) 16 program.  It is based on
 the Gaussian(R) 09 system (copyright 2009, Gaussian, Inc.),
 the Gaussian(R) 03 system (copyright 2003, Gaussian, Inc.),
 the Gaussian(R) 98 system (copyright 1998, Gaussian, Inc.),
 the Gaussian(R) 94 system (copyright 1995, Gaussian, Inc.),
 the Gaussian 92(TM) system (copyright 1992, Gaussian, Inc.),
 the Gaussian 90(TM) system (copyright 1990, Gaussian, Inc.),
 the Gaussian 88(TM) system (copyright 1988, Gaussian, Inc.),
 the Gaussian 86(TM) system (copyright 1986, Carnegie Mellon
 University), and the Gaussian 82(TM) system (copyright 1983,
 Carnegie Mellon University). Gaussian is a federally registered
 trademark of Gaussian, Inc.
  
 This software contains proprietary and confidential information,
 including trade secrets, belonging to Gaussian, Inc.
  
 This software is provided under written license and may be
 used, copied, transmitted, or stored only in accord with that
 written license.
  
 The following legend is applicable only to US Government
 contracts under FAR:
  
                    RESTRICTED RIGHTS LEGEND
  
 Use, reproduction and disclosure by the US Government is
 subject to restrictions as set forth in subparagraphs (a)
 and (c) of the Commercial Computer Software - Restricted
 Rights clause in FAR 52.227-19.
  
 Gaussian, Inc.
 340 Quinnipiac St., Bldg. 40, Wallingford CT 06492
  
  
 ---------------------------------------------------------------
 Warning -- This program may not be used in any manner that
 competes with the business of Gaussian, Inc. or will provide
 assistance to any competitor of Gaussian, Inc.  The licensee
 of this program is prohibited from giving any competitor of
 Gaussian, Inc. access to this program.  By using this program,
 the user acknowledges that Gaussian, Inc. is engaged in the
 business of creating and licensing software in the field of
 computational chemistry and represents and warrants to the
 licensee that it is not a competitor of Gaussian, Inc. and that
 it will not use this program in any manner prohibited above.
 ---------------------------------------------------------------
  

 Cite this work as:
 Gaussian 16, Revision B.01,
 M. J. Frisch, G. W. Trucks, H. B. Schlegel, G. E. Scuseria, 
 M. A. Robb, J. R. Cheeseman, G. Scalmani, V. Barone, 
 G. A. Petersson, H. Nakatsuji, X. Li, M. Caricato, A. V. Marenich, 
 J. Bloino, B. G. Janesko, R. Gomperts, B. Mennucci, H. P. Hratchian, 
 J. V. Ortiz, A. F. Izmaylov, J. L. Sonnenberg, D. Williams-Young, 
 F. Ding, F. Lipparini, F. Egidi, J. Goings, B. Peng, A. Petrone, 
 T. Henderson, D. Ranasinghe, V. G. Zakrzewski, J. Gao, N. Rega, 
 G. Zheng, W. Liang, M. Hada, M. Ehara, K. Toyota, R. Fukuda, 
 J. Hasegawa, M. Ishida, T. Nakajima, Y. Honda, O. Kitao, H. Nakai, 
 T. Vreven, K. Throssell, J. A. Montgomery, Jr., J. E. Peralta, 
 F. Ogliaro, M. J. Bearpark, J. J. Heyd, E. N. Brothers, K. N. Kudin, 
 V. N. Staroverov, T. A. Keith, R. Kobayashi, J. Normand, 
 K. Raghavachari, A. P. Rendell, J. C. Burant, S. S. Iyengar, 
 J. Tomasi, M. Cossi, J. M. Millam, M. Klene, C. Adamo, R. Cammi, 
 J. W. Ochterski, R. L. Martin, K. Morokuma, O. Farkas, 
 J. B. Foresman, and D. J. Fox, Gaussian, Inc., Wallingford CT, 2016.
 
 ******************************************
 Gaussian 16:  EM64L-G16RevB.01 20-Dec-2017
                29-Oct-2023 
 ******************************************
 %chk=./chk/27.chk
 ---------------------------
 # B3LYP/6-31G(d,p) OPT FREQ
 ---------------------------
 1/18=20,19=15,26=3,38=1/1,3;
 2/9=110,12=2,17=6,18=5,40=1/2;
 3/5=1,6=6,7=101,11=2,25=1,30=1,71=1,74=-5/1,2,3;
 4//1;
 5/5=2,38=5/2;
 6/7=2,8=2,9=2,10=2,28=1/1;
 7//1,2,3,16;
 1/18=20,19=15,26=3/3(2);
 2/9=110/2;
 99//99;
 2/9=110/2;
 3/5=1,6=6,7=101,11=2,25=1,30=1,71=1,74=-5/1,2,3;
 4/5=5,16=3,69=1/1;
 5/5=2,38=5/2;
 7//1,2,3,16;
 1/18=20,19=15,26=3/3(-5);
 2/9=110/2;
 6/7=2,8=2,9=2,10=2,19=2,28=1/1;
 99/9=1/99;
 ------
 27poly
 ------
 Symbolic Z-matrix:
 Charge =  0 Multiplicity = 1
 C                    -32.41037   3.48349  -0.00465 
 C                    -31.3296   4.08934  -0.5019 
 C                    -29.96959   3.6513   -0.12738 
 C                    -28.8866   4.26171  -0.62657 
 C                    -27.52776   3.82288  -0.24727 
 C                    -26.44122   4.4324   -0.73996 
 C                    -25.08621   3.99091  -0.3505 
 C                    -23.9935   4.59822  -0.83206 
 C                    -22.64456   4.15167  -0.42761 
 C                    -21.54285   4.75426  -0.89502 
 C                    -20.20043   4.30051  -0.47323 
 C                    -19.09013   4.90353  -0.93456 
 C                    -17.69751   4.5267   -0.56637 
 C                    -17.37257   3.53203   0.28586 
 C                    -15.98639   3.14948   0.66192 
 C                    -14.86453   3.7341    0.2057 
 C                    -13.53921   3.25413   0.65515 
 C                    -12.40738   3.81391   0.19203 
 C                    -11.03007   3.39277   0.56821 
 C                    -10.73989   2.415     1.45256 
 C                    -9.3669    1.97041   1.81095 
 C                    -8.23043   2.46208   1.28763 
 C                    -6.92043   1.90611   1.68826 
 C                    -5.78691   2.33885   1.12135 
 C                    -4.4842    1.73796   1.47459 
 C                    -3.36724   2.10528   0.83416 
 C                    -2.07285   1.45462   1.12408 
 C                    -0.98942   1.74638   0.39358 
 C                     0.2928    1.04445   0.60838 
 C                     1.32348   1.25827  -0.21934 
 C                     2.59088   0.509    -0.08705 
 C                     3.55054   0.65786  -1.01586 
 C                     4.83663  -0.08228  -1.05567 
 C                     5.26943  -0.94815  -0.11446 
 C                     6.54271  -1.72036  -0.20161 
 C                     7.34217  -1.74321  -1.2888 
 C                     8.59674  -2.52579  -1.42377 
 C                     9.17842  -3.25578  -0.44877 
 C                     10.44138  -4.03105  -0.62205 
 C                     11.07359  -4.20121  -1.80279 
 C                     12.33828  -4.95204  -2.00102 
 C                     13.0889  -5.49724  -1.02889 
 C                     14.35134  -6.18163  -1.38096 
 C                     15.18635  -6.65131  -0.44532 
 C                     16.4612  -7.28442  -0.84302 
 C                     17.365   -7.67419   0.06469 
 C                     18.6508  -8.25976  -0.36904 
 C                     19.60627  -8.57726   0.51365 
 C                     20.89979  -9.12475   0.05384 
 C                     21.88903  -9.38698   0.91745 
 C                     23.18715  -9.90936   0.44165 
 C                     24.19459  -10.13797   1.29386 
 C                     25.49411  -10.6482   0.81045 
 C                     26.50748  -10.86411   1.65203 
 H                    -32.31975   2.65208   0.68832 
 H                    -31.46139   4.918    -1.19242 
 H                    -29.8511   2.82098   0.56526 
 H                    -29.0045   5.09244  -1.3186 
 H                    -27.41275   2.99236   0.44572 
 H                    -26.55323   5.2639   -1.43199 
 H                    -24.97916   3.15963   0.34287 
 H                    -24.09593   5.4308   -1.52422 
 H                    -22.54974   3.31951   0.26649 
 H                    -21.63371   5.58748  -1.58802 
 H                    -20.14313   3.47069   0.21963 
 H                    -19.19729   5.73262  -1.62899 
 H                    -16.92129   5.11754  -1.03477 
 H                    -18.14635   2.94104   0.75627 
 H                    -15.89527   2.32459   1.3638 
 H                    -14.90374   4.55753  -0.49705 
 H                    -13.51074   2.43326   1.36044 
 H                    -12.48311   4.62983  -0.52186 
 H                    -10.23449   3.9301    0.06927 
 H                    -11.53388   1.87981   1.95523 
 H                    -9.29951   1.16857   2.54156 
 H                    -8.24666   3.25188   0.54666 
 H                    -6.88257   1.11266   2.43122 
 H                    -5.82533   3.11866   0.36406 
 H                    -4.44199   0.96131   2.23475 
 H                    -3.41729   2.86473   0.05698 
 H                    -2.01379   0.70095   1.90583 
 H                    -1.06285   2.48079  -0.40563 
 H                     0.38133   0.31748   1.4122 
 H                     1.21296   1.96654  -1.03778 
 H                     2.70446  -0.18484   0.73765 
 H                     3.37498   1.34494  -1.83981 
 H                     5.43263   0.11618  -1.93503 
 H                     4.67672  -1.1229    0.77466 
 H                     6.79328  -2.31307   0.66901 
 H                     7.07829  -1.18012  -2.17263 
 H                     9.0488   -2.46395  -2.4034 
 H                     8.73804  -3.29022   0.53973 
 H                     10.84358  -4.48094   0.27705 
 H                     10.66505  -3.77985  -2.71004 
 H                     12.68033  -5.03423  -3.02973 
 H                     12.80537  -5.42287   0.01465 
 H                     14.61948  -6.27931  -2.43099 
 H                     14.94301  -6.54127   0.60878 
 H                     16.67861  -7.40905  -1.9018 
 H                     17.16665  -7.53518   1.12486 
 H                     18.82988  -8.41202  -1.4313 
 H                     19.44067  -8.41207   1.57573 
 H                     21.05282  -9.3004   -1.0088 
 H                     21.74412  -9.20188   1.97933 
 H                     23.32536  -10.10121  -0.62018 
 H                     24.06099  -9.94108   2.35514 
 H                     25.63685  -10.85121  -0.24767 
 H                     26.40529  -10.67131   2.71586 
 H                     27.4544  -11.23728   1.27544 
 H                    -33.40116   3.82047  -0.29167 
 

 GradGradGradGradGradGradGradGradGradGradGradGradGradGradGradGradGradGrad
 Berny optimization.
 Initialization pass.
                           ----------------------------
                           !    Initial Parameters    !
                           ! (Angstroms and Degrees)  !
 --------------------------                            --------------------------
 ! Name  Definition              Value          Derivative Info.                !
 --------------------------------------------------------------------------------
 ! R1    R(1,2)                  1.3351         estimate D2E/DX2                !
 ! R2    R(1,55)                 1.0861         estimate D2E/DX2                !
 ! R3    R(1,110)                1.0852         estimate D2E/DX2                !
 ! R4    R(2,3)                  1.4771         estimate D2E/DX2                !
 ! R5    R(2,56)                 1.0867         estimate D2E/DX2                !
 ! R6    R(3,4)                  1.3396         estimate D2E/DX2                !
 ! R7    R(3,57)                 1.0878         estimate D2E/DX2                !
 ! R8    R(4,5)                  1.4775         estimate D2E/DX2                !
 ! R9    R(4,58)                 1.0876         estimate D2E/DX2                !
 ! R10   R(5,6)                  1.3397         estimate D2E/DX2                !
 ! R11   R(5,59)                 1.0878         estimate D2E/DX2                !
 ! R12   R(6,7)                  1.4774         estimate D2E/DX2                !
 ! R13   R(6,60)                 1.0876         estimate D2E/DX2                !
 ! R14   R(7,8)                  1.3397         estimate D2E/DX2                !
 ! R15   R(7,61)                 1.0878         estimate D2E/DX2                !
 ! R16   R(8,9)                  1.4774         estimate D2E/DX2                !
 ! R17   R(8,62)                 1.0876         estimate D2E/DX2                !
 ! R18   R(9,10)                 1.3399         estimate D2E/DX2                !
 ! R19   R(9,63)                 1.0878         estimate D2E/DX2                !
 ! R20   R(10,11)                1.4785         estimate D2E/DX2                !
 ! R21   R(10,64)                1.0876         estimate D2E/DX2                !
 ! R22   R(11,12)                1.3451         estimate D2E/DX2                !
 ! R23   R(11,65)                1.0826         estimate D2E/DX2                !
 ! R24   R(12,13)                1.4889         estimate D2E/DX2                !
 ! R25   R(12,66)                1.0868         estimate D2E/DX2                !
 ! R26   R(13,14)                1.3495         estimate D2E/DX2                !
 ! R27   R(13,67)                1.0821         estimate D2E/DX2                !
 ! R28   R(14,15)                1.4864         estimate D2E/DX2                !
 ! R29   R(14,68)                1.0813         estimate D2E/DX2                !
 ! R30   R(15,16)                1.3448         estimate D2E/DX2                !
 ! R31   R(15,69)                1.0869         estimate D2E/DX2                !
 ! R32   R(16,17)                1.4795         estimate D2E/DX2                !
 ! R33   R(16,70)                1.0832         estimate D2E/DX2                !
 ! R34   R(17,18)                1.3449         estimate D2E/DX2                !
 ! R35   R(17,71)                1.0826         estimate D2E/DX2                !
 ! R36   R(18,19)                1.4886         estimate D2E/DX2                !
 ! R37   R(18,72)                1.0868         estimate D2E/DX2                !
 ! R38   R(19,20)                1.3499         estimate D2E/DX2                !
 ! R39   R(19,73)                1.082          estimate D2E/DX2                !
 ! R40   R(20,21)                1.487          estimate D2E/DX2                !
 ! R41   R(20,74)                1.0814         estimate D2E/DX2                !
 ! R42   R(21,22)                1.3443         estimate D2E/DX2                !
 ! R43   R(21,75)                1.0869         estimate D2E/DX2                !
 ! R44   R(22,23)                1.4784         estimate D2E/DX2                !
 ! R45   R(22,76)                1.0831         estimate D2E/DX2                !
 ! R46   R(23,24)                1.3392         estimate D2E/DX2                !
 ! R47   R(23,77)                1.0876         estimate D2E/DX2                !
 ! R48   R(24,25)                1.4775         estimate D2E/DX2                !
 ! R49   R(24,78)                1.0877         estimate D2E/DX2                !
 ! R50   R(25,26)                1.3389         estimate D2E/DX2                !
 ! R51   R(25,79)                1.0876         estimate D2E/DX2                !
 ! R52   R(26,27)                1.4774         estimate D2E/DX2                !
 ! R53   R(26,80)                1.0878         estimate D2E/DX2                !
 ! R54   R(27,28)                1.3389         estimate D2E/DX2                !
 ! R55   R(27,81)                1.0875         estimate D2E/DX2                !
 ! R56   R(28,29)                1.4775         estimate D2E/DX2                !
 ! R57   R(28,82)                1.0879         estimate D2E/DX2                !
 ! R58   R(29,30)                1.3391         estimate D2E/DX2                !
 ! R59   R(29,83)                1.0874         estimate D2E/DX2                !
 ! R60   R(30,31)                1.4782         estimate D2E/DX2                !
 ! R61   R(30,84)                1.088          estimate D2E/DX2                !
 ! R62   R(31,32)                1.3438         estimate D2E/DX2                !
 ! R63   R(31,85)                1.0837         estimate D2E/DX2                !
 ! R64   R(32,33)                1.4844         estimate D2E/DX2                !
 ! R65   R(32,86)                1.0871         estimate D2E/DX2                !
 ! R66   R(33,34)                1.3502         estimate D2E/DX2                !
 ! R67   R(33,87)                1.0807         estimate D2E/DX2                !
 ! R68   R(34,35)                1.4917         estimate D2E/DX2                !
 ! R69   R(34,88)                1.0828         estimate D2E/DX2                !
 ! R70   R(35,36)                1.3497         estimate D2E/DX2                !
 ! R71   R(35,89)                1.0826         estimate D2E/DX2                !
 ! R72   R(36,37)                1.4848         estimate D2E/DX2                !
 ! R73   R(36,90)                1.0807         estimate D2E/DX2                !
 ! R74   R(37,38)                1.3498         estimate D2E/DX2                !
 ! R75   R(37,91)                1.0807         estimate D2E/DX2                !
 ! R76   R(38,39)                1.492          estimate D2E/DX2                !
 ! R77   R(38,92)                1.0827         estimate D2E/DX2                !
 ! R78   R(39,40)                1.3501         estimate D2E/DX2                !
 ! R79   R(39,93)                1.0828         estimate D2E/DX2                !
 ! R80   R(40,41)                1.4841         estimate D2E/DX2                !
 ! R81   R(40,94)                1.0805         estimate D2E/DX2                !
 ! R82   R(41,42)                1.3438         estimate D2E/DX2                !
 ! R83   R(41,95)                1.0872         estimate D2E/DX2                !
 ! R84   R(42,43)                1.4785         estimate D2E/DX2                !
 ! R85   R(42,96)                1.0839         estimate D2E/DX2                !
 ! R86   R(43,44)                1.3391         estimate D2E/DX2                !
 ! R87   R(43,97)                1.0881         estimate D2E/DX2                !
 ! R88   R(44,45)                1.4779         estimate D2E/DX2                !
 ! R89   R(44,98)                1.0874         estimate D2E/DX2                !
 ! R90   R(45,46)                1.3389         estimate D2E/DX2                !
 ! R91   R(45,99)                1.088          estimate D2E/DX2                !
 ! R92   R(46,47)                1.4779         estimate D2E/DX2                !
 ! R93   R(46,100)               1.0875         estimate D2E/DX2                !
 ! R94   R(47,48)                1.339          estimate D2E/DX2                !
 ! R95   R(47,101)               1.088          estimate D2E/DX2                !
 ! R96   R(48,49)                1.478          estimate D2E/DX2                !
 ! R97   R(48,102)               1.0875         estimate D2E/DX2                !
 ! R98   R(49,50)                1.3391         estimate D2E/DX2                !
 ! R99   R(49,103)               1.0879         estimate D2E/DX2                !
 ! R100  R(50,51)                1.478          estimate D2E/DX2                !
 ! R101  R(50,104)               1.0876         estimate D2E/DX2                !
 ! R102  R(51,52)                1.3392         estimate D2E/DX2                !
 ! R103  R(51,105)               1.0878         estimate D2E/DX2                !
 ! R104  R(52,53)                1.4774         estimate D2E/DX2                !
 ! R105  R(52,106)               1.0876         estimate D2E/DX2                !
 ! R106  R(53,54)                1.3348         estimate D2E/DX2                !
 ! R107  R(53,107)               1.0868         estimate D2E/DX2                !
 ! R108  R(54,108)               1.086          estimate D2E/DX2                !
 ! R109  R(54,109)               1.0852         estimate D2E/DX2                !
 ! A1    A(2,1,55)             121.1622         estimate D2E/DX2                !
 ! A2    A(2,1,110)            119.9794         estimate D2E/DX2                !
 ! A3    A(55,1,110)           118.8584         estimate D2E/DX2                !
 ! A4    A(1,2,3)              121.0884         estimate D2E/DX2                !
 ! A5    A(1,2,56)             118.983          estimate D2E/DX2                !
 ! A6    A(3,2,56)             119.9286         estimate D2E/DX2                !
 ! A7    A(2,3,4)              120.9802         estimate D2E/DX2                !
 ! A8    A(2,3,57)             119.217          estimate D2E/DX2                !
 ! A9    A(4,3,57)             119.8028         estimate D2E/DX2                !
 ! A10   A(3,4,5)              120.8317         estimate D2E/DX2                !
 ! A11   A(3,4,58)             119.8335         estimate D2E/DX2                !
 ! A12   A(5,4,58)             119.3347         estimate D2E/DX2                !
 ! A13   A(4,5,6)              121.0887         estimate D2E/DX2                !
 ! A14   A(4,5,59)             119.1808         estimate D2E/DX2                !
 ! A15   A(6,5,59)             119.7302         estimate D2E/DX2                !
 ! A16   A(5,6,7)              120.7264         estimate D2E/DX2                !
 ! A17   A(5,6,60)             119.8888         estimate D2E/DX2                !
 ! A18   A(7,6,60)             119.3844         estimate D2E/DX2                !
 ! A19   A(6,7,8)              121.1893         estimate D2E/DX2                !
 ! A20   A(6,7,61)             119.1219         estimate D2E/DX2                !
 ! A21   A(8,7,61)             119.6883         estimate D2E/DX2                !
 ! A22   A(7,8,9)              120.6186         estimate D2E/DX2                !
 ! A23   A(7,8,62)             119.9331         estimate D2E/DX2                !
 ! A24   A(9,8,62)             119.4478         estimate D2E/DX2                !
 ! A25   A(8,9,10)             121.2865         estimate D2E/DX2                !
 ! A26   A(8,9,63)             119.0456         estimate D2E/DX2                !
 ! A27   A(10,9,63)            119.6675         estimate D2E/DX2                !
 ! A28   A(9,10,11)            120.5989         estimate D2E/DX2                !
 ! A29   A(9,10,64)            119.8778         estimate D2E/DX2                !
 ! A30   A(11,10,64)           119.5229         estimate D2E/DX2                !
 ! A31   A(10,11,12)           120.9348         estimate D2E/DX2                !
 ! A32   A(10,11,65)           117.7686         estimate D2E/DX2                !
 ! A33   A(12,11,65)           121.2964         estimate D2E/DX2                !
 ! A34   A(11,12,13)           125.0145         estimate D2E/DX2                !
 ! A35   A(11,12,66)           118.6704         estimate D2E/DX2                !
 ! A36   A(13,12,66)           116.315          estimate D2E/DX2                !
 ! A37   A(12,13,14)           124.6034         estimate D2E/DX2                !
 ! A38   A(12,13,67)           115.1943         estimate D2E/DX2                !
 ! A39   A(14,13,67)           120.2022         estimate D2E/DX2                !
 ! A40   A(13,14,15)           125.0311         estimate D2E/DX2                !
 ! A41   A(13,14,68)           120.3475         estimate D2E/DX2                !
 ! A42   A(15,14,68)           114.6214         estimate D2E/DX2                !
 ! A43   A(14,15,16)           125.4698         estimate D2E/DX2                !
 ! A44   A(14,15,69)           115.9062         estimate D2E/DX2                !
 ! A45   A(16,15,69)           118.6239         estimate D2E/DX2                !
 ! A46   A(15,16,17)           120.212          estimate D2E/DX2                !
 ! A47   A(15,16,70)           121.3554         estimate D2E/DX2                !
 ! A48   A(17,16,70)           118.432          estimate D2E/DX2                !
 ! A49   A(16,17,18)           120.9451         estimate D2E/DX2                !
 ! A50   A(16,17,71)           117.8691         estimate D2E/DX2                !
 ! A51   A(18,17,71)           121.1834         estimate D2E/DX2                !
 ! A52   A(17,18,19)           125.0201         estimate D2E/DX2                !
 ! A53   A(17,18,72)           118.6878         estimate D2E/DX2                !
 ! A54   A(19,18,72)           116.2877         estimate D2E/DX2                !
 ! A55   A(18,19,20)           124.7062         estimate D2E/DX2                !
 ! A56   A(18,19,73)           115.0439         estimate D2E/DX2                !
 ! A57   A(20,19,73)           120.2487         estimate D2E/DX2                !
 ! A58   A(19,20,21)           124.9543         estimate D2E/DX2                !
 ! A59   A(19,20,74)           120.34           estimate D2E/DX2                !
 ! A60   A(21,20,74)           114.7026         estimate D2E/DX2                !
 ! A61   A(20,21,22)           125.2673         estimate D2E/DX2                !
 ! A62   A(20,21,75)           116.0932         estimate D2E/DX2                !
 ! A63   A(22,21,75)           118.6268         estimate D2E/DX2                !
 ! A64   A(21,22,23)           120.4011         estimate D2E/DX2                !
 ! A65   A(21,22,76)           121.3567         estimate D2E/DX2                !
 ! A66   A(23,22,76)           118.2221         estimate D2E/DX2                !
 ! A67   A(22,23,24)           120.914          estimate D2E/DX2                !
 ! A68   A(22,23,77)           119.3595         estimate D2E/DX2                !
 ! A69   A(24,23,77)           119.6979         estimate D2E/DX2                !
 ! A70   A(23,24,25)           120.9082         estimate D2E/DX2                !
 ! A71   A(23,24,78)           119.7685         estimate D2E/DX2                !
 ! A72   A(25,24,78)           119.2869         estimate D2E/DX2                !
 ! A73   A(24,25,26)           120.6392         estimate D2E/DX2                !
 ! A74   A(24,25,79)           119.4564         estimate D2E/DX2                !
 ! A75   A(26,25,79)           119.8581         estimate D2E/DX2                !
 ! A76   A(25,26,27)           121.0775         estimate D2E/DX2                !
 ! A77   A(25,26,80)           119.662          estimate D2E/DX2                !
 ! A78   A(27,26,80)           119.2077         estimate D2E/DX2                !
 ! A79   A(26,27,28)           120.3924         estimate D2E/DX2                !
 ! A80   A(26,27,81)           119.5939         estimate D2E/DX2                !
 ! A81   A(28,27,81)           119.9526         estimate D2E/DX2                !
 ! A82   A(27,28,29)           121.2937         estimate D2E/DX2                !
 ! A83   A(27,28,82)           119.5595         estimate D2E/DX2                !
 ! A84   A(29,28,82)           119.0843         estimate D2E/DX2                !
 ! A85   A(28,29,30)           120.1494         estimate D2E/DX2                !
 ! A86   A(28,29,83)           119.7184         estimate D2E/DX2                !
 ! A87   A(30,29,83)           120.0662         estimate D2E/DX2                !
 ! A88   A(29,30,31)           121.5784         estimate D2E/DX2                !
 ! A89   A(29,30,84)           119.3898         estimate D2E/DX2                !
 ! A90   A(31,30,84)           118.9714         estimate D2E/DX2                !
 ! A91   A(30,31,32)           119.6226         estimate D2E/DX2                !
 ! A92   A(30,31,85)           118.8467         estimate D2E/DX2                !
 ! A93   A(32,31,85)           121.4706         estimate D2E/DX2                !
 ! A94   A(31,32,33)           125.5942         estimate D2E/DX2                !
 ! A95   A(31,32,86)           118.5905         estimate D2E/DX2                !
 ! A96   A(33,32,86)           115.7685         estimate D2E/DX2                !
 ! A97   A(32,33,34)           125.3666         estimate D2E/DX2                !
 ! A98   A(32,33,87)           114.0844         estimate D2E/DX2                !
 ! A99   A(34,33,87)           120.5459         estimate D2E/DX2                !
 ! A100  A(33,34,35)           124.3942         estimate D2E/DX2                !
 ! A101  A(33,34,88)           120.0309         estimate D2E/DX2                !
 ! A102  A(35,34,88)           115.5743         estimate D2E/DX2                !
 ! A103  A(34,35,36)           124.1546         estimate D2E/DX2                !
 ! A104  A(34,35,89)           115.7209         estimate D2E/DX2                !
 ! A105  A(36,35,89)           120.0939         estimate D2E/DX2                !
 ! A106  A(35,36,37)           125.6359         estimate D2E/DX2                !
 ! A107  A(35,36,90)           120.3534         estimate D2E/DX2                !
 ! A108  A(37,36,90)           113.9922         estimate D2E/DX2                !
 ! A109  A(36,37,38)           125.6987         estimate D2E/DX2                !
 ! A110  A(36,37,91)           113.9342         estimate D2E/DX2                !
 ! A111  A(38,37,91)           120.3637         estimate D2E/DX2                !
 ! A112  A(37,38,39)           124.1883         estimate D2E/DX2                !
 ! A113  A(37,38,92)           120.0935         estimate D2E/DX2                !
 ! A114  A(39,38,92)           115.7092         estimate D2E/DX2                !
 ! A115  A(38,39,40)           124.2937         estimate D2E/DX2                !
 ! A116  A(38,39,93)           115.7127         estimate D2E/DX2                !
 ! A117  A(40,39,93)           119.9906         estimate D2E/DX2                !
 ! A118  A(39,40,41)           125.4243         estimate D2E/DX2                !
 ! A119  A(39,40,94)           120.5373         estimate D2E/DX2                !
 ! A120  A(41,40,94)           114.0378         estimate D2E/DX2                !
 ! A121  A(40,41,42)           125.7785         estimate D2E/DX2                !
 ! A122  A(40,41,95)           115.6416         estimate D2E/DX2                !
 ! A123  A(42,41,95)           118.5617         estimate D2E/DX2                !
 ! A124  A(41,42,43)           119.5043         estimate D2E/DX2                !
 ! A125  A(41,42,96)           121.5021         estimate D2E/DX2                !
 ! A126  A(43,42,96)           118.9698         estimate D2E/DX2                !
 ! A127  A(42,43,44)           121.8967         estimate D2E/DX2                !
 ! A128  A(42,43,97)           118.7993         estimate D2E/DX2                !
 ! A129  A(44,43,97)           119.2808         estimate D2E/DX2                !
 ! A130  A(43,44,45)           120.0071         estimate D2E/DX2                !
 ! A131  A(43,44,98)           120.1495         estimate D2E/DX2                !
 ! A132  A(45,44,98)           119.8175         estimate D2E/DX2                !
 ! A133  A(44,45,46)           121.6379         estimate D2E/DX2                !
 ! A134  A(44,45,99)           118.901          estimate D2E/DX2                !
 ! A135  A(46,45,99)           119.4378         estimate D2E/DX2                !
 ! A136  A(45,46,47)           120.2418         estimate D2E/DX2                !
 ! A137  A(45,46,100)          120.0381         estimate D2E/DX2                !
 ! A138  A(47,46,100)          119.6981         estimate D2E/DX2                !
 ! A139  A(46,47,48)           121.4194         estimate D2E/DX2                !
 ! A140  A(46,47,101)          119.025          estimate D2E/DX2                !
 ! A141  A(48,47,101)          119.5388         estimate D2E/DX2                !
 ! A142  A(47,48,49)           120.4829         estimate D2E/DX2                !
 ! A143  A(47,48,102)          119.9421         estimate D2E/DX2                !
 ! A144  A(49,48,102)          119.5615         estimate D2E/DX2                !
 ! A145  A(48,49,50)           121.2284         estimate D2E/DX2                !
 ! A146  A(48,49,103)          119.1312         estimate D2E/DX2                !
 ! A147  A(50,49,103)          119.632          estimate D2E/DX2                !
 ! A148  A(49,50,51)           120.6928         estimate D2E/DX2                !
 ! A149  A(49,50,104)          119.862          estimate D2E/DX2                !
 ! A150  A(51,50,104)          119.4397         estimate D2E/DX2                !
 ! A151  A(50,51,52)           121.0776         estimate D2E/DX2                !
 ! A152  A(50,51,105)          119.2202         estimate D2E/DX2                !
 ! A153  A(52,51,105)          119.6998         estimate D2E/DX2                !
 ! A154  A(51,52,53)           120.8255         estimate D2E/DX2                !
 ! A155  A(51,52,106)          119.8438         estimate D2E/DX2                !
 ! A156  A(53,52,106)          119.3296         estimate D2E/DX2                !
 ! A157  A(52,53,54)           121.1534         estimate D2E/DX2                !
 ! A158  A(52,53,107)          119.9066         estimate D2E/DX2                !
 ! A159  A(54,53,107)          118.9398         estimate D2E/DX2                !
 ! A160  A(53,54,108)          121.1618         estimate D2E/DX2                !
 ! A161  A(53,54,109)          119.9508         estimate D2E/DX2                !
 ! A162  A(108,54,109)         118.8873         estimate D2E/DX2                !
 ! D1    D(55,1,2,3)            -0.0209         estimate D2E/DX2                !
 ! D2    D(55,1,2,56)         -179.9804         estimate D2E/DX2                !
 ! D3    D(110,1,2,3)          179.9669         estimate D2E/DX2                !
 ! D4    D(110,1,2,56)           0.0075         estimate D2E/DX2                !
 ! D5    D(1,2,3,4)           -179.9291         estimate D2E/DX2                !
 ! D6    D(1,2,3,57)             0.0024         estimate D2E/DX2                !
 ! D7    D(56,2,3,4)             0.03           estimate D2E/DX2                !
 ! D8    D(56,2,3,57)          179.9615         estimate D2E/DX2                !
 ! D9    D(2,3,4,5)            179.8565         estimate D2E/DX2                !
 ! D10   D(2,3,4,58)            -0.0249         estimate D2E/DX2                !
 ! D11   D(57,3,4,5)            -0.0746         estimate D2E/DX2                !
 ! D12   D(57,3,4,58)         -179.956          estimate D2E/DX2                !
 ! D13   D(3,4,5,6)           -179.781          estimate D2E/DX2                !
 ! D14   D(3,4,5,59)             0.0644         estimate D2E/DX2                !
 ! D15   D(58,4,5,6)             0.101          estimate D2E/DX2                !
 ! D16   D(58,4,5,59)          179.9464         estimate D2E/DX2                !
 ! D17   D(4,5,6,7)            179.722          estimate D2E/DX2                !
 ! D18   D(4,5,6,60)            -0.0745         estimate D2E/DX2                !
 ! D19   D(59,5,6,7)            -0.1226         estimate D2E/DX2                !
 ! D20   D(59,5,6,60)         -179.9192         estimate D2E/DX2                !
 ! D21   D(5,6,7,8)           -179.6469         estimate D2E/DX2                !
 ! D22   D(5,6,7,61)             0.1281         estimate D2E/DX2                !
 ! D23   D(60,6,7,8)             0.1507         estimate D2E/DX2                !
 ! D24   D(60,6,7,61)          179.9257         estimate D2E/DX2                !
 ! D25   D(6,7,8,9)            179.6207         estimate D2E/DX2                !
 ! D26   D(6,7,8,62)            -0.1241         estimate D2E/DX2                !
 ! D27   D(61,7,8,9)            -0.1531         estimate D2E/DX2                !
 ! D28   D(61,7,8,62)         -179.8978         estimate D2E/DX2                !
 ! D29   D(7,8,9,10)          -179.6164         estimate D2E/DX2                !
 ! D30   D(7,8,9,63)             0.1389         estimate D2E/DX2                !
 ! D31   D(62,8,9,10)            0.1296         estimate D2E/DX2                !
 ! D32   D(62,8,9,63)          179.8849         estimate D2E/DX2                !
 ! D33   D(8,9,10,11)          179.598          estimate D2E/DX2                !
 ! D34   D(8,9,10,64)           -0.1594         estimate D2E/DX2                !
 ! D35   D(63,9,10,11)          -0.1558         estimate D2E/DX2                !
 ! D36   D(63,9,10,64)        -179.9132         estimate D2E/DX2                !
 ! D37   D(9,10,11,12)        -179.7651         estimate D2E/DX2                !
 ! D38   D(9,10,11,65)           0.0655         estimate D2E/DX2                !
 ! D39   D(64,10,11,12)         -0.0069         estimate D2E/DX2                !
 ! D40   D(64,10,11,65)        179.8238         estimate D2E/DX2                !
 ! D41   D(10,11,12,13)        179.6967         estimate D2E/DX2                !
 ! D42   D(10,11,12,66)         -0.1915         estimate D2E/DX2                !
 ! D43   D(65,11,12,13)         -0.1279         estimate D2E/DX2                !
 ! D44   D(65,11,12,66)        179.9839         estimate D2E/DX2                !
 ! D45   D(11,12,13,14)         -0.3437         estimate D2E/DX2                !
 ! D46   D(11,12,13,67)        179.8007         estimate D2E/DX2                !
 ! D47   D(66,12,13,14)        179.5469         estimate D2E/DX2                !
 ! D48   D(66,12,13,67)         -0.3087         estimate D2E/DX2                !
 ! D49   D(12,13,14,15)       -179.8827         estimate D2E/DX2                !
 ! D50   D(12,13,14,68)          0.0669         estimate D2E/DX2                !
 ! D51   D(67,13,14,15)         -0.0339         estimate D2E/DX2                !
 ! D52   D(67,13,14,68)        179.9156         estimate D2E/DX2                !
 ! D53   D(13,14,15,16)         -0.2231         estimate D2E/DX2                !
 ! D54   D(13,14,15,69)        179.9129         estimate D2E/DX2                !
 ! D55   D(68,14,15,16)        179.8249         estimate D2E/DX2                !
 ! D56   D(68,14,15,69)         -0.0392         estimate D2E/DX2                !
 ! D57   D(14,15,16,17)       -179.7527         estimate D2E/DX2                !
 ! D58   D(14,15,16,70)         -0.046          estimate D2E/DX2                !
 ! D59   D(69,15,16,17)          0.1079         estimate D2E/DX2                !
 ! D60   D(69,15,16,70)        179.8146         estimate D2E/DX2                !
 ! D61   D(15,16,17,18)        178.9295         estimate D2E/DX2                !
 ! D62   D(15,16,17,71)         -0.5141         estimate D2E/DX2                !
 ! D63   D(70,16,17,18)         -0.7857         estimate D2E/DX2                !
 ! D64   D(70,16,17,71)        179.7708         estimate D2E/DX2                !
 ! D65   D(16,17,18,19)       -179.1837         estimate D2E/DX2                !
 ! D66   D(16,17,18,72)          0.0223         estimate D2E/DX2                !
 ! D67   D(71,17,18,19)          0.2414         estimate D2E/DX2                !
 ! D68   D(71,17,18,72)        179.4473         estimate D2E/DX2                !
 ! D69   D(17,18,19,20)         -1.8536         estimate D2E/DX2                !
 ! D70   D(17,18,19,73)        177.741          estimate D2E/DX2                !
 ! D71   D(72,18,19,20)        178.9234         estimate D2E/DX2                !
 ! D72   D(72,18,19,73)         -1.4821         estimate D2E/DX2                !
 ! D73   D(18,19,20,21)        178.6391         estimate D2E/DX2                !
 ! D74   D(18,19,20,74)         -0.6836         estimate D2E/DX2                !
 ! D75   D(73,19,20,21)         -0.9357         estimate D2E/DX2                !
 ! D76   D(73,19,20,74)        179.7417         estimate D2E/DX2                !
 ! D77   D(19,20,21,22)         -1.2878         estimate D2E/DX2                !
 ! D78   D(19,20,21,75)       -179.9726         estimate D2E/DX2                !
 ! D79   D(74,20,21,22)        178.0687         estimate D2E/DX2                !
 ! D80   D(74,20,21,75)         -0.6161         estimate D2E/DX2                !
 ! D81   D(20,21,22,23)       -177.8222         estimate D2E/DX2                !
 ! D82   D(20,21,22,76)          0.5187         estimate D2E/DX2                !
 ! D83   D(75,21,22,23)          0.8321         estimate D2E/DX2                !
 ! D84   D(75,21,22,76)        179.1731         estimate D2E/DX2                !
 ! D85   D(21,22,23,24)        176.4158         estimate D2E/DX2                !
 ! D86   D(21,22,23,77)         -1.6332         estimate D2E/DX2                !
 ! D87   D(76,22,23,24)         -1.9763         estimate D2E/DX2                !
 ! D88   D(76,22,23,77)        179.9747         estimate D2E/DX2                !
 ! D89   D(22,23,24,25)       -177.0314         estimate D2E/DX2                !
 ! D90   D(22,23,24,78)          0.7602         estimate D2E/DX2                !
 ! D91   D(77,23,24,25)          1.0111         estimate D2E/DX2                !
 ! D92   D(77,23,24,78)        178.8026         estimate D2E/DX2                !
 ! D93   D(23,24,25,26)        175.0386         estimate D2E/DX2                !
 ! D94   D(23,24,25,79)         -2.4836         estimate D2E/DX2                !
 ! D95   D(78,24,25,26)         -2.7634         estimate D2E/DX2                !
 ! D96   D(78,24,25,79)        179.7144         estimate D2E/DX2                !
 ! D97   D(24,25,26,27)       -176.3773         estimate D2E/DX2                !
 ! D98   D(24,25,26,80)          0.9612         estimate D2E/DX2                !
 ! D99   D(79,25,26,27)          1.1349         estimate D2E/DX2                !
 ! D100  D(79,25,26,80)        178.4734         estimate D2E/DX2                !
 ! D101  D(25,26,27,28)        173.9626         estimate D2E/DX2                !
 ! D102  D(25,26,27,81)         -3.1959         estimate D2E/DX2                !
 ! D103  D(80,26,27,28)         -3.3878         estimate D2E/DX2                !
 ! D104  D(80,26,27,81)        179.4537         estimate D2E/DX2                !
 ! D105  D(26,27,28,29)       -175.9897         estimate D2E/DX2                !
 ! D106  D(26,27,28,82)          1.1073         estimate D2E/DX2                !
 ! D107  D(81,27,28,29)          1.1586         estimate D2E/DX2                !
 ! D108  D(81,27,28,82)        178.2556         estimate D2E/DX2                !
 ! D109  D(27,28,29,30)        173.394          estimate D2E/DX2                !
 ! D110  D(27,28,29,83)         -3.6541         estimate D2E/DX2                !
 ! D111  D(82,28,29,30)         -3.7165         estimate D2E/DX2                !
 ! D112  D(82,28,29,83)        179.2354         estimate D2E/DX2                !
 ! D113  D(28,29,30,31)       -175.9815         estimate D2E/DX2                !
 ! D114  D(28,29,30,84)          1.1605         estimate D2E/DX2                !
 ! D115  D(83,29,30,31)          1.0562         estimate D2E/DX2                !
 ! D116  D(83,29,30,84)        178.1983         estimate D2E/DX2                !
 ! D117  D(29,30,31,32)        173.4562         estimate D2E/DX2                !
 ! D118  D(29,30,31,85)         -3.7659         estimate D2E/DX2                !
 ! D119  D(84,30,31,32)         -3.6975         estimate D2E/DX2                !
 ! D120  D(84,30,31,85)        179.0804         estimate D2E/DX2                !
 ! D121  D(30,31,32,33)       -176.3781         estimate D2E/DX2                !
 ! D122  D(30,31,32,86)          1.0216         estimate D2E/DX2                !
 ! D123  D(85,31,32,33)          0.769          estimate D2E/DX2                !
 ! D124  D(85,31,32,86)        178.1687         estimate D2E/DX2                !
 ! D125  D(31,32,33,34)         -4.7409         estimate D2E/DX2                !
 ! D126  D(31,32,33,87)        174.6138         estimate D2E/DX2                !
 ! D127  D(86,32,33,34)        177.7944         estimate D2E/DX2                !
 ! D128  D(86,32,33,87)         -2.8509         estimate D2E/DX2                !
 ! D129  D(32,33,34,35)        177.542          estimate D2E/DX2                !
 ! D130  D(32,33,34,88)         -2.1477         estimate D2E/DX2                !
 ! D131  D(87,33,34,35)         -1.7741         estimate D2E/DX2                !
 ! D132  D(87,33,34,88)        178.5363         estimate D2E/DX2                !
 ! D133  D(33,34,35,36)         -6.8732         estimate D2E/DX2                !
 ! D134  D(33,34,35,89)        175.143          estimate D2E/DX2                !
 ! D135  D(88,34,35,36)        172.829          estimate D2E/DX2                !
 ! D136  D(88,34,35,89)         -5.1548         estimate D2E/DX2                !
 ! D137  D(34,35,36,37)       -178.3633         estimate D2E/DX2                !
 ! D138  D(34,35,36,90)         -0.0249         estimate D2E/DX2                !
 ! D139  D(89,35,36,37)         -0.4627         estimate D2E/DX2                !
 ! D140  D(89,35,36,90)        177.8757         estimate D2E/DX2                !
 ! D141  D(35,36,37,38)         -5.0852         estimate D2E/DX2                !
 ! D142  D(35,36,37,91)        175.5825         estimate D2E/DX2                !
 ! D143  D(90,36,37,38)        176.4842         estimate D2E/DX2                !
 ! D144  D(90,36,37,91)         -2.8481         estimate D2E/DX2                !
 ! D145  D(36,37,38,39)        179.9741         estimate D2E/DX2                !
 ! D146  D(36,37,38,92)         -1.1676         estimate D2E/DX2                !
 ! D147  D(91,37,38,39)         -0.7332         estimate D2E/DX2                !
 ! D148  D(91,37,38,92)        178.1252         estimate D2E/DX2                !
 ! D149  D(37,38,39,40)         -6.9537         estimate D2E/DX2                !
 ! D150  D(37,38,39,93)        173.6766         estimate D2E/DX2                !
 ! D151  D(92,38,39,40)        174.1426         estimate D2E/DX2                !
 ! D152  D(92,38,39,93)         -5.2271         estimate D2E/DX2                !
 ! D153  D(38,39,40,41)        179.1906         estimate D2E/DX2                !
 ! D154  D(38,39,40,94)         -1.0888         estimate D2E/DX2                !
 ! D155  D(93,39,40,41)         -1.4651         estimate D2E/DX2                !
 ! D156  D(93,39,40,94)        178.2556         estimate D2E/DX2                !
 ! D157  D(39,40,41,42)         -4.7233         estimate D2E/DX2                !
 ! D158  D(39,40,41,95)        176.8603         estimate D2E/DX2                !
 ! D159  D(94,40,41,42)        175.5402         estimate D2E/DX2                !
 ! D160  D(94,40,41,95)         -2.8763         estimate D2E/DX2                !
 ! D161  D(40,41,42,43)       -178.0645         estimate D2E/DX2                !
 ! D162  D(40,41,42,96)          0.1418         estimate D2E/DX2                !
 ! D163  D(95,41,42,43)          0.31           estimate D2E/DX2                !
 ! D164  D(95,41,42,96)        178.5163         estimate D2E/DX2                !
 ! D165  D(41,42,43,44)        174.7873         estimate D2E/DX2                !
 ! D166  D(41,42,43,97)         -3.447          estimate D2E/DX2                !
 ! D167  D(96,42,43,44)         -3.4647         estimate D2E/DX2                !
 ! D168  D(96,42,43,97)        178.3011         estimate D2E/DX2                !
 ! D169  D(42,43,44,45)       -177.7447         estimate D2E/DX2                !
 ! D170  D(42,43,44,98)          0.4027         estimate D2E/DX2                !
 ! D171  D(97,43,44,45)          0.4813         estimate D2E/DX2                !
 ! D172  D(97,43,44,98)        178.6287         estimate D2E/DX2                !
 ! D173  D(43,44,45,46)        174.9052         estimate D2E/DX2                !
 ! D174  D(43,44,45,99)         -3.3322         estimate D2E/DX2                !
 ! D175  D(98,44,45,46)         -3.2484         estimate D2E/DX2                !
 ! D176  D(98,44,45,99)        178.5142         estimate D2E/DX2                !
 ! D177  D(44,45,46,47)       -177.7939         estimate D2E/DX2                !
 ! D178  D(44,45,46,100)         0.4967         estimate D2E/DX2                !
 ! D179  D(99,45,46,47)          0.4342         estimate D2E/DX2                !
 ! D180  D(99,45,46,100)       178.7248         estimate D2E/DX2                !
 ! D181  D(45,46,47,48)        175.6084         estimate D2E/DX2                !
 ! D182  D(45,46,47,101)        -2.8939         estimate D2E/DX2                !
 ! D183  D(100,46,47,48)        -2.6881         estimate D2E/DX2                !
 ! D184  D(100,46,47,101)      178.8096         estimate D2E/DX2                !
 ! D185  D(46,47,48,49)       -178.188          estimate D2E/DX2                !
 ! D186  D(46,47,48,102)         0.4717         estimate D2E/DX2                !
 ! D187  D(101,47,48,49)         0.3067         estimate D2E/DX2                !
 ! D188  D(101,47,48,102)      178.9665         estimate D2E/DX2                !
 ! D189  D(47,48,49,50)        176.7483         estimate D2E/DX2                !
 ! D190  D(47,48,49,103)        -2.1918         estimate D2E/DX2                !
 ! D191  D(102,48,49,50)        -1.9166         estimate D2E/DX2                !
 ! D192  D(102,48,49,103)      179.1434         estimate D2E/DX2                !
 ! D193  D(48,49,50,51)       -178.7897         estimate D2E/DX2                !
 ! D194  D(48,49,50,104)         0.3558         estimate D2E/DX2                !
 ! D195  D(103,49,50,51)         0.1452         estimate D2E/DX2                !
 ! D196  D(103,49,50,104)      179.2906         estimate D2E/DX2                !
 ! D197  D(49,50,51,52)        178.0615         estimate D2E/DX2                !
 ! D198  D(49,50,51,105)        -1.3668         estimate D2E/DX2                !
 ! D199  D(104,50,51,52)        -1.0875         estimate D2E/DX2                !
 ! D200  D(104,50,51,105)      179.4842         estimate D2E/DX2                !
 ! D201  D(50,51,52,53)       -179.4198         estimate D2E/DX2                !
 ! D202  D(50,51,52,106)         0.1935         estimate D2E/DX2                !
 ! D203  D(105,51,52,53)         0.0057         estimate D2E/DX2                !
 ! D204  D(105,51,52,106)      179.6191         estimate D2E/DX2                !
 ! D205  D(51,52,53,54)        179.2389         estimate D2E/DX2                !
 ! D206  D(51,52,53,107)        -0.583          estimate D2E/DX2                !
 ! D207  D(106,52,53,54)        -0.3764         estimate D2E/DX2                !
 ! D208  D(106,52,53,107)      179.8016         estimate D2E/DX2                !
 ! D209  D(52,53,54,108)         0.0298         estimate D2E/DX2                !
 ! D210  D(52,53,54,109)      -179.8711         estimate D2E/DX2                !
 ! D211  D(107,53,54,108)      179.8534         estimate D2E/DX2                !
 ! D212  D(107,53,54,109)       -0.0474         estimate D2E/DX2                !
 --------------------------------------------------------------------------------
 Trust Radius=3.00D-01 FncErr=1.00D-07 GrdErr=1.00D-06 EigMax=2.50D+02 EigMin=1.00D-04
 Number of steps in this run=    493 maximum allowed number of steps=    660.
 GradGradGradGradGradGradGradGradGradGradGradGradGradGradGradGradGradGrad

 Stoichiometry    C54H56
 Framework group  C1[X(C54H56)]
 Deg. of freedom   324
 Full point group                 C1      NOp   1
 Largest Abelian subgroup         C1      NOp   1
 Largest concise Abelian subgroup C1      NOp   1
                         Standard orientation:                         
 ---------------------------------------------------------------------
 Center     Atomic      Atomic             Coordinates (Angstroms)
 Number     Number       Type             X           Y           Z
 ---------------------------------------------------------------------
      1          6           0      -30.136975    4.012135   -0.126184
      2          6           0      -29.258205    3.144898    0.381783
      3          6           0      -27.829683    3.200706    0.010324
      4          6           0      -26.949991    2.328498    0.520278
      5          6           0      -25.522375    2.385339    0.144023
      6          6           0      -24.639019    1.512981    0.647500
      7          6           0      -23.214361    1.573310    0.261037
      8          6           0      -22.324426    0.701321    0.753384
      9          6           0      -20.904232    0.767997    0.351863
     10          6           0      -20.004339   -0.101974    0.830072
     11          6           0      -18.588461   -0.026791    0.411118
     12          6           0      -17.680380   -0.899528    0.883294
     13          6           0      -16.236775   -0.911339    0.518860
     14          6           0      -15.656156   -0.047705   -0.340379
     15          6           0      -14.217211   -0.052358   -0.712767
     16          6           0      -13.293073   -0.910505   -0.245806
     17          6           0      -11.886614   -0.805755   -0.692738
     18          6           0      -10.946263   -1.642551   -0.219036
     19          6           0       -9.505571   -1.607650   -0.591932
     20          6           0       -8.962876   -0.751352   -1.483310
     21          6           0       -7.520139   -0.692525   -1.838633
     22          6           0       -6.557306   -1.464330   -1.305306
     23          6           0       -5.145458   -1.281772   -1.704168
     24          6           0       -4.169858   -1.995568   -1.127788
     25          6           0       -2.753186   -1.767323   -1.479682
     26          6           0       -1.776275   -2.412935   -0.830446
     27          6           0       -0.354509   -2.133888   -1.119496
     28          6           0        0.610003   -2.696857   -0.381020
     29          6           0        2.033528   -2.364424   -0.595464
     30          6           0        2.967746   -2.837269    0.239273
     31          6           0        4.389407   -2.454443    0.106850
     32          6           0        5.272251   -2.844760    1.041750
     33          6           0        6.709047   -2.474035    1.081586
     34          6           0        7.359490   -1.764172    0.135050
     35          6           0        8.792383   -1.358668    0.221878
     36          6           0        9.566216   -1.539231    1.312847
     37          6           0       10.983724   -1.118278    1.447299
     38          6           0       11.741499   -0.579401    0.468910
     39          6           0       13.165042   -0.167357    0.641784
     40          6           0       13.816742   -0.160431    1.824170
     41          6           0       15.235362    0.227841    2.022217
     42          6           0       16.106667    0.543609    1.049162
     43          6           0       17.505014    0.869952    1.401606
     44          6           0       18.437418    1.090790    0.466127
     45          6           0       19.833925    1.364851    0.864709
     46          6           0       20.811248    1.490605   -0.041798
     47          6           0       22.205544    1.716284    0.393287
     48          6           0       23.213317    1.758855   -0.487306
     49          6           0       24.604837    1.946023   -0.025779
     50          6           0       25.630368    1.926515   -0.886644
     51          6           0       27.019576    2.088416   -0.408872
     52          6           0       28.053654    2.031751   -1.257954
     53          6           0       29.440953    2.181648   -0.772470
     54          6           0       30.477330    2.111272   -1.610774
     55          1           0      -29.826126    4.782463   -0.825917
     56          1           0      -29.607981    2.388171    1.078847
     57          1           0      -27.492268    3.962558   -0.688937
     58          1           0      -27.286943    1.566091    1.218936
     59          1           0      -25.188269    3.148307   -0.555597
     60          1           0      -24.970494    0.748259    1.346188
     61          1           0      -22.887713    2.339134   -0.439015
     62          1           0      -22.646965   -0.066996    1.452264
     63          1           0      -20.589143    1.537923   -0.348989
     64          1           0      -20.315888   -0.873990    1.529858
     65          1           0      -18.310153    0.750894   -0.288666
     66          1           0      -18.006549   -1.663195    1.584383
     67          1           0      -15.647445   -1.683179    0.996302
     68          1           0      -16.243088    0.723604   -0.819827
     69          1           0      -13.907599    0.711468   -1.421356
     70          1           0      -13.552261   -1.686752    0.463907
     71          1           0      -11.638450   -0.029131   -1.405011
     72          1           0      -11.238669   -2.401715    0.501554
     73          1           0       -8.883387   -2.332787   -0.084304
     74          1           0       -9.584086   -0.028735   -1.994634
     75          1           0       -7.239483    0.055136   -2.575863
     76          1           0       -6.785468   -2.213927   -0.557563
     77          1           0       -4.895470   -0.534445   -2.453827
     78          1           0       -4.416789   -2.729471   -0.363923
     79          1           0       -2.503439   -1.037517   -2.246369
     80          1           0       -2.029044   -3.123918   -0.046928
     81          1           0       -0.094589   -1.430924   -1.907488
     82          1           0        0.341341   -3.377255    0.424193
     83          1           0        2.314788   -1.695267   -1.405148
     84          1           0        2.670254   -3.482385    1.063306
     85          1           0        4.686015   -1.824104   -0.723296
     86          1           0        4.917706   -3.452059    1.870770
     87          1           0        7.228294   -2.815654    1.965638
     88          1           0        6.837112   -1.446375   -0.758542
     89          1           0        9.194166   -0.862776   -0.652616
     90          1           0        9.159472   -2.002903    2.200212
     91          1           0       11.400428   -1.288868    2.429702
     92          1           0       11.328758   -0.438414   -0.522055
     93          1           0       13.674937    0.150194   -0.259162
     94          1           0       13.308314   -0.448713    2.732994
     95          1           0       15.584334    0.225873    3.051882
     96          1           0       15.816218    0.537367    0.004892
     97          1           0       17.786830    0.902838    2.452085
     98          1           0       18.176211    1.039351   -0.588184
     99          1           0       20.074023    1.437319    1.923448
    100          1           0       20.585694    1.399185   -1.101692
    101          1           0       22.416053    1.825633    1.455068
    102          1           0       23.012355    1.633450   -1.548731
    103          1           0       24.796474    2.084868    1.036049
    104          1           0       25.444028    1.776399   -1.947576
    105          1           0       27.201264    2.246817    0.651920
    106          1           0       27.875074    1.867276   -2.318138
    107          1           0       29.629991    2.349561    0.284550
    108          1           0       30.330114    1.942331   -2.673384
    109          1           0       31.488526    2.222066   -1.232685
    110          1           0      -31.182468    3.954395    0.158766
 ---------------------------------------------------------------------
 Rotational constants (GHZ):           0.1707610           0.0022515           0.0022354
 Standard basis: 6-31G(d,p) (6D, 7F)
 There are  1090 symmetry adapted cartesian basis functions of A   symmetry.
 There are  1090 symmetry adapted basis functions of A   symmetry.
  1090 basis functions,  1904 primitive gaussians,  1090 cartesian basis functions
   190 alpha electrons      190 beta electrons
       nuclear repulsion energy      4104.6341647436 Hartrees.
 NAtoms=  110 NActive=  110 NUniq=  110 SFac= 1.00D+00 NAtFMM=   60 NAOKFM=T Big=T
 Integral buffers will be    131072 words long.
 Raffenetti 2 integral format.
 Two-electron integral symmetry is turned on.
 One-electron integrals computed using PRISM.
 NBasis=  1090 RedAO= T EigKep=  7.49D-04  NBF=  1090
 NBsUse=  1090 1.00D-06 EigRej= -1.00D+00 NBFU=  1090
 ExpMin= 1.61D-01 ExpMax= 3.05D+03 ExpMxC= 4.57D+02 IAcc=3 IRadAn=         5 AccDes= 0.00D+00
 Harris functional with IExCor=  402 and IRadAn=       5 diagonalized for initial guess.
 HarFok:  IExCor=  402 AccDes= 0.00D+00 IRadAn=         5 IDoV= 1 UseB2=F ITyADJ=14
 ICtDFT=  3500011 ScaDFX=  1.000000  1.000000  1.000000  1.000000
 FoFCou: FMM=F IPFlag=           0 FMFlag=      100000 FMFlg1=        2001
         NFxFlg=           0 DoJE=T BraDBF=F KetDBF=T FulRan=T
         wScrn=  0.000000 ICntrl=       500 IOpCl=  0 I1Cent=   200000004 NGrid=           0
         NMat0=    1 NMatS0=      1 NMatT0=    0 NMatD0=    1 NMtDS0=    0 NMtDT0=    0
 Petite list used in FoFCou.
 Requested convergence on RMS density matrix=1.00D-08 within 128 cycles.
 Requested convergence on MAX density matrix=1.00D-06.
 Requested convergence on             energy=1.00D-06.
 No special actions if energy rises.
 Integral accuracy reduced to 1.0D-05 until final iterations.
 Initial convergence to 1.0D-05 achieved.  Increase integral accuracy.
 SCF Done:  E(RB3LYP) =  -2091.16077872     A.U. after   13 cycles
            NFock= 13  Conv=0.69D-08     -V/T= 2.0101
 Hyperfine terms turned off by default for NAtoms > 100.

 **********************************************************************

            Population analysis using the SCF Density.

 **********************************************************************

 Orbital symmetries:
       Occupied  (A) (A) (A) (A) (A) (A) (A) (A) (A) (A) (A) (A)
                 (A) (A) (A) (A) (A) (A) (A) (A) (A) (A) (A) (A)
                 (A) (A) (A) (A) (A) (A) (A) (A) (A) (A) (A) (A)
                 (A) (A) (A) (A) (A) (A) (A) (A) (A) (A) (A) (A)
                 (A) (A) (A) (A) (A) (A) (A) (A) (A) (A) (A) (A)
                 (A) (A) (A) (A) (A) (A) (A) (A) (A) (A) (A) (A)
                 (A) (A) (A) (A) (A) (A) (A) (A) (A) (A) (A) (A)
                 (A) (A) (A) (A) (A) (A) (A) (A) (A) (A) (A) (A)
                 (A) (A) (A) (A) (A) (A) (A) (A) (A) (A) (A) (A)
                 (A) (A) (A) (A) (A) (A) (A) (A) (A) (A) (A) (A)
                 (A) (A) (A) (A) (A) (A) (A) (A) (A) (A) (A) (A)
                 (A) (A) (A) (A) (A) (A) (A) (A) (A) (A) (A) (A)
                 (A) (A) (A) (A) (A) (A) (A) (A) (A) (A) (A) (A)
                 (A) (A) (A) (A) (A) (A) (A) (A) (A) (A) (A) (A)
                 (A) (A) (A) (A) (A) (A) (A) (A) (A) (A) (A) (A)
                 (A) (A) (A) (A) (A) (A) (A) (A) (A) (A)
       Virtual   (A) (A) (A) (A) (A) (A) (A) (A) (A) (A) (A) (A)
                 (A) (A) (A) (A) (A) (A) (A) (A) (A) (A) (A) (A)
                 (A) (A) (A) (A) (A) (A) (A) (A) (A) (A) (A) (A)
                 (A) (A) (A) (A) (A) (A) (A) (A) (A) (A) (A) (A)
                 (A) (A) (A) (A) (A) (A) (A) (A) (A) (A) (A) (A)
                 (A) (A) (A) (A) (A) (A) (A) (A) (A) (A) (A) (A)
                 (A) (A) (A) (A) (A) (A) (A) (A) (A) (A) (A) (A)
                 (A) (A) (A) (A) (A) (A) (A) (A) (A) (A) (A) (A)
                 (A) (A) (A) (A) (A) (A) (A) (A) (A) (A) (A) (A)
                 (A) (A) (A) (A) (A) (A) (A) (A) (A) (A) (A) (A)
                 (A) (A) (A) (A) (A) (A) (A) (A) (A) (A) (A) (A)
                 (A) (A) (A) (A) (A) (A) (A) (A) (A) (A) (A) (A)
                 (A) (A) (A) (A) (A) (A) (A) (A) (A) (A) (A) (A)
                 (A) (A) (A) (A) (A) (A) (A) (A) (A) (A) (A) (A)
                 (A) (A) (A) (A) (A) (A) (A) (A) (A) (A) (A) (A)
                 (A) (A) (A) (A) (A) (A) (A) (A) (A) (A) (A) (A)
                 (A) (A) (A) (A) (A) (A) (A) (A) (A) (A) (A) (A)
                 (A) (A) (A) (A) (A) (A) (A) (A) (A) (A) (A) (A)
                 (A) (A) (A) (A) (A) (A) (A) (A) (A) (A) (A) (A)
                 (A) (A) (A) (A) (A) (A) (A) (A) (A) (A) (A) (A)
                 (A) (A) (A) (A) (A) (A) (A) (A) (A) (A) (A) (A)
                 (A) (A) (A) (A) (A) (A) (A) (A) (A) (A) (A) (A)
                 (A) (A) (A) (A) (A) (A) (A) (A) (A) (A) (A) (A)
                 (A) (A) (A) (A) (A) (A) (A) (A) (A) (A) (A) (A)
                 (A) (A) (A) (A) (A) (A) (A) (A) (A) (A) (A) (A)
                 (A) (A) (A) (A) (A) (A) (A) (A) (A) (A) (A) (A)
                 (A) (A) (A) (A) (A) (A) (A) (A) (A) (A) (A) (A)
                 (A) (A) (A) (A) (A) (A) (A) (A) (A) (A) (A) (A)
                 (A) (A) (A) (A) (A) (A) (A) (A) (A) (A) (A) (A)
                 (A) (A) (A) (A) (A) (A) (A) (A) (A) (A) (A) (A)
                 (A) (A) (A) (A) (A) (A) (A) (A) (A) (A) (A) (A)
                 (A) (A) (A) (A) (A) (A) (A) (A) (A) (A) (A) (A)
                 (A) (A) (A) (A) (A) (A) (A) (A) (A) (A) (A) (A)
                 (A) (A) (A) (A) (A) (A) (A) (A) (A) (A) (A) (A)
                 (A) (A) (A) (A) (A) (A) (A) (A) (A) (A) (A) (A)
                 (A) (A) (A) (A) (A) (A) (A) (A) (A) (A) (A) (A)
                 (A) (A) (A) (A) (A) (A) (A) (A) (A) (A) (A) (A)
                 (A) (A) (A) (A) (A) (A) (A) (A) (A) (A) (A) (A)
                 (A) (A) (A) (A) (A) (A) (A) (A) (A) (A) (A) (A)
                 (A) (A) (A) (A) (A) (A) (A) (A) (A) (A) (A) (A)
                 (A) (A) (A) (A) (A) (A) (A) (A) (A) (A) (A) (A)
                 (A) (A) (A) (A) (A) (A) (A) (A) (A) (A) (A) (A)
                 (A) (A) (A) (A) (A) (A) (A) (A) (A) (A) (A) (A)
                 (A) (A) (A) (A) (A) (A) (A) (A) (A) (A) (A) (A)
                 (A) (A) (A) (A) (A) (A) (A) (A) (A) (A) (A) (A)
                 (A) (A) (A) (A) (A) (A) (A) (A) (A) (A) (A) (A)
                 (A) (A) (A) (A) (A) (A) (A) (A) (A) (A) (A) (A)
                 (A) (A) (A) (A) (A) (A) (A) (A) (A) (A) (A) (A)
                 (A) (A) (A) (A) (A) (A) (A) (A) (A) (A) (A) (A)
                 (A) (A) (A) (A) (A) (A) (A) (A) (A) (A) (A) (A)
                 (A) (A) (A) (A) (A) (A) (A) (A) (A) (A) (A) (A)
                 (A) (A) (A) (A) (A) (A) (A) (A) (A) (A) (A) (A)
                 (A) (A) (A) (A) (A) (A) (A) (A) (A) (A) (A) (A)
                 (A) (A) (A) (A) (A) (A) (A) (A) (A) (A) (A) (A)
                 (A) (A) (A) (A) (A) (A) (A) (A) (A) (A) (A) (A)
                 (A) (A) (A) (A) (A) (A) (A) (A) (A) (A) (A) (A)
                 (A) (A) (A) (A) (A) (A) (A) (A) (A) (A) (A) (A)
                 (A) (A) (A) (A) (A) (A) (A) (A) (A) (A) (A) (A)
                 (A) (A) (A) (A) (A) (A) (A) (A) (A) (A) (A) (A)
                 (A) (A) (A) (A) (A) (A) (A) (A) (A) (A) (A) (A)
                 (A) (A) (A) (A) (A) (A) (A) (A) (A) (A) (A) (A)
                 (A) (A) (A) (A) (A) (A) (A) (A) (A) (A) (A) (A)
                 (A) (A) (A) (A) (A) (A) (A) (A) (A) (A) (A) (A)
                 (A) (A) (A) (A) (A) (A) (A) (A) (A) (A) (A) (A)
                 (A) (A) (A) (A) (A) (A) (A) (A) (A) (A) (A) (A)
                 (A) (A) (A) (A) (A) (A) (A) (A) (A) (A) (A) (A)
                 (A) (A) (A) (A) (A) (A) (A) (A) (A) (A) (A) (A)
                 (A) (A) (A) (A) (A) (A) (A) (A) (A) (A) (A) (A)
                 (A) (A) (A) (A) (A) (A) (A) (A) (A) (A) (A) (A)
                 (A) (A) (A) (A) (A) (A) (A) (A) (A) (A) (A) (A)
                 (A) (A) (A) (A) (A) (A) (A) (A) (A) (A) (A) (A)
                 (A) (A) (A) (A) (A) (A) (A) (A) (A) (A) (A) (A)
                 (A) (A) (A) (A) (A) (A) (A) (A) (A) (A) (A) (A)
                 (A) (A) (A) (A) (A) (A) (A) (A) (A) (A) (A) (A)
                 (A) (A) (A) (A) (A) (A) (A) (A) (A) (A) (A) (A)
 The electronic state is 1-A.
 Alpha  occ. eigenvalues --  -10.19399 -10.19385 -10.19358 -10.19353 -10.19274
 Alpha  occ. eigenvalues --  -10.19268 -10.19266 -10.19257 -10.19252 -10.19227
 Alpha  occ. eigenvalues --  -10.19216 -10.19201 -10.19194 -10.19192 -10.19192
 Alpha  occ. eigenvalues --  -10.19186 -10.19180 -10.19176 -10.19175 -10.19174
 Alpha  occ. eigenvalues --  -10.19174 -10.19170 -10.19165 -10.19157 -10.19149
 Alpha  occ. eigenvalues --  -10.19149 -10.19148 -10.19146 -10.19143 -10.19141
 Alpha  occ. eigenvalues --  -10.19140 -10.19137 -10.19133 -10.19124 -10.19117
 Alpha  occ. eigenvalues --  -10.19106 -10.19102 -10.19097 -10.19093 -10.19093
 Alpha  occ. eigenvalues --  -10.19087 -10.19077 -10.19069 -10.19067 -10.19061
 Alpha  occ. eigenvalues --  -10.19053 -10.19042 -10.19034 -10.19009 -10.19001
 Alpha  occ. eigenvalues --  -10.18983 -10.18907 -10.17974 -10.17890  -0.82964
 Alpha  occ. eigenvalues --   -0.82880  -0.82830  -0.82568  -0.82368  -0.82131
 Alpha  occ. eigenvalues --   -0.81806  -0.81495  -0.81071  -0.80630  -0.80159
 Alpha  occ. eigenvalues --   -0.79631  -0.79063  -0.78456  -0.77809  -0.77120
 Alpha  occ. eigenvalues --   -0.76402  -0.75638  -0.74837  -0.74069  -0.73183
 Alpha  occ. eigenvalues --   -0.72298  -0.71494  -0.70590  -0.69997  -0.68827
 Alpha  occ. eigenvalues --   -0.68215  -0.65122  -0.64439  -0.62883  -0.62406
 Alpha  occ. eigenvalues --   -0.61487  -0.61003  -0.60017  -0.58834  -0.57783
 Alpha  occ. eigenvalues --   -0.57695  -0.57034  -0.56876  -0.56861  -0.56789
 Alpha  occ. eigenvalues --   -0.56304  -0.56158  -0.55863  -0.55367  -0.55325
 Alpha  occ. eigenvalues --   -0.55096  -0.54988  -0.54654  -0.54479  -0.52724
 Alpha  occ. eigenvalues --   -0.52280  -0.51817  -0.50137  -0.50073  -0.49076
 Alpha  occ. eigenvalues --   -0.48655  -0.48358  -0.47901  -0.47677  -0.47364
 Alpha  occ. eigenvalues --   -0.47198  -0.46586  -0.46484  -0.45944  -0.45555
 Alpha  occ. eigenvalues --   -0.45333  -0.44790  -0.44497  -0.44219  -0.43515
 Alpha  occ. eigenvalues --   -0.43439  -0.43015  -0.42532  -0.41498  -0.41486
 Alpha  occ. eigenvalues --   -0.40998  -0.40898  -0.40523  -0.40141  -0.39456
 Alpha  occ. eigenvalues --   -0.39388  -0.39053  -0.38952  -0.38644  -0.38209
 Alpha  occ. eigenvalues --   -0.38065  -0.37864  -0.37666  -0.37593  -0.37446
 Alpha  occ. eigenvalues --   -0.37135  -0.36975  -0.36662  -0.36390  -0.36265
 Alpha  occ. eigenvalues --   -0.36031  -0.35851  -0.35596  -0.35303  -0.35283
 Alpha  occ. eigenvalues --   -0.35185  -0.35117  -0.35112  -0.34922  -0.34835
 Alpha  occ. eigenvalues --   -0.34605  -0.34533  -0.34393  -0.34223  -0.34151
 Alpha  occ. eigenvalues --   -0.33916  -0.33813  -0.33421  -0.33311  -0.33164
 Alpha  occ. eigenvalues --   -0.33134  -0.32876  -0.32323  -0.31721  -0.31044
 Alpha  occ. eigenvalues --   -0.30319  -0.29538  -0.28707  -0.27820  -0.26887
 Alpha  occ. eigenvalues --   -0.25905  -0.24875  -0.23821  -0.22705  -0.21581
 Alpha  occ. eigenvalues --   -0.20450  -0.19307  -0.18313  -0.17305  -0.16635
 Alpha virt. eigenvalues --   -0.08568  -0.07862  -0.06417  -0.05545  -0.04290
 Alpha virt. eigenvalues --   -0.03199  -0.01833  -0.00439   0.00610   0.01742
 Alpha virt. eigenvalues --    0.03043   0.04162   0.04958   0.06030   0.06994
 Alpha virt. eigenvalues --    0.07546   0.07815   0.07907   0.08262   0.08289
 Alpha virt. eigenvalues --    0.08507   0.08847   0.08908   0.09159   0.09191
 Alpha virt. eigenvalues --    0.09503   0.09648   0.09688   0.09830   0.09895
 Alpha virt. eigenvalues --    0.10220   0.10732   0.11323   0.11637   0.11929
 Alpha virt. eigenvalues --    0.12008   0.12145   0.12158   0.12552   0.12567
 Alpha virt. eigenvalues --    0.12613   0.12751   0.13027   0.13129   0.13184
 Alpha virt. eigenvalues --    0.13346   0.13833   0.14039   0.14094   0.14183
 Alpha virt. eigenvalues --    0.14246   0.14356   0.14410   0.14534   0.14571
 Alpha virt. eigenvalues --    0.14778   0.14884   0.15072   0.15373   0.15447
 Alpha virt. eigenvalues --    0.15483   0.15794   0.15974   0.16144   0.16228
 Alpha virt. eigenvalues --    0.16654   0.17379   0.18151   0.18458   0.19107
 Alpha virt. eigenvalues --    0.19705   0.19834   0.19975   0.20155   0.20632
 Alpha virt. eigenvalues --    0.21136   0.21379   0.22015   0.22504   0.22648
 Alpha virt. eigenvalues --    0.22839   0.24806   0.25823   0.25953   0.26223
 Alpha virt. eigenvalues --    0.27238   0.27275   0.27588   0.28360   0.28511
 Alpha virt. eigenvalues --    0.28627   0.29060   0.29964   0.30125   0.31135
 Alpha virt. eigenvalues --    0.31425   0.31741   0.31826   0.32189   0.32617
 Alpha virt. eigenvalues --    0.32737   0.33065   0.33261   0.33779   0.34043
 Alpha virt. eigenvalues --    0.34973   0.35439   0.35741   0.35948   0.36198
 Alpha virt. eigenvalues --    0.36214   0.36506   0.37217   0.37634   0.38129
 Alpha virt. eigenvalues --    0.38465   0.38837   0.39438   0.39651   0.40406
 Alpha virt. eigenvalues --    0.40709   0.41532   0.41639   0.41720   0.41819
 Alpha virt. eigenvalues --    0.41928   0.42044   0.42307   0.43316   0.43642
 Alpha virt. eigenvalues --    0.44420   0.44993   0.45592   0.47006   0.47478
 Alpha virt. eigenvalues --    0.48269   0.48735   0.49185   0.50633   0.51372
 Alpha virt. eigenvalues --    0.51424   0.51627   0.51749   0.51960   0.52133
 Alpha virt. eigenvalues --    0.52159   0.52426   0.52713   0.52838   0.53180
 Alpha virt. eigenvalues --    0.53420   0.53616   0.53725   0.54057   0.54190
 Alpha virt. eigenvalues --    0.54728   0.54884   0.55115   0.55312   0.55672
 Alpha virt. eigenvalues --    0.55997   0.56083   0.56508   0.56735   0.57044
 Alpha virt. eigenvalues --    0.57252   0.57308   0.57441   0.57537   0.57644
 Alpha virt. eigenvalues --    0.57725   0.58082   0.58129   0.58376   0.58733
 Alpha virt. eigenvalues --    0.58753   0.58836   0.58867   0.58973   0.59157
 Alpha virt. eigenvalues --    0.59222   0.59244   0.59338   0.59484   0.59868
 Alpha virt. eigenvalues --    0.60070   0.60305   0.60438   0.60680   0.60891
 Alpha virt. eigenvalues --    0.60953   0.61167   0.61216   0.61472   0.61904
 Alpha virt. eigenvalues --    0.62025   0.62112   0.62333   0.62413   0.62900
 Alpha virt. eigenvalues --    0.63018   0.63119   0.63425   0.63628   0.63963
 Alpha virt. eigenvalues --    0.64193   0.64492   0.64629   0.64672   0.64700
 Alpha virt. eigenvalues --    0.65120   0.65181   0.65237   0.65420   0.65469
 Alpha virt. eigenvalues --    0.65670   0.66048   0.66132   0.66221   0.66493
 Alpha virt. eigenvalues --    0.66670   0.66718   0.66986   0.67508   0.67584
 Alpha virt. eigenvalues --    0.67686   0.67887   0.68272   0.68632   0.68752
 Alpha virt. eigenvalues --    0.69587   0.69711   0.69835   0.70511   0.70714
 Alpha virt. eigenvalues --    0.71523   0.71829   0.72659   0.73693   0.74036
 Alpha virt. eigenvalues --    0.74848   0.75242   0.75339   0.75735   0.75807
 Alpha virt. eigenvalues --    0.76158   0.78769   0.78780   0.78835   0.79472
 Alpha virt. eigenvalues --    0.79587   0.79920   0.80466   0.80811   0.81226
 Alpha virt. eigenvalues --    0.81622   0.81832   0.82013   0.82082   0.82682
 Alpha virt. eigenvalues --    0.83056   0.83373   0.83811   0.83905   0.84361
 Alpha virt. eigenvalues --    0.84558   0.84658   0.84747   0.84840   0.85088
 Alpha virt. eigenvalues --    0.85368   0.85405   0.85563   0.85823   0.85985
 Alpha virt. eigenvalues --    0.86072   0.86262   0.86455   0.86733   0.86877
 Alpha virt. eigenvalues --    0.87031   0.87227   0.87366   0.87439   0.87565
 Alpha virt. eigenvalues --    0.87717   0.87833   0.88145   0.88444   0.88506
 Alpha virt. eigenvalues --    0.88616   0.89125   0.89152   0.89534   0.89912
 Alpha virt. eigenvalues --    0.90784   0.91008   0.91112   0.91218   0.91502
 Alpha virt. eigenvalues --    0.91587   0.91879   0.92191   0.92369   0.92689
 Alpha virt. eigenvalues --    0.92930   0.93132   0.93454   0.93669   0.93994
 Alpha virt. eigenvalues --    0.94519   0.95096   0.95296   0.95682   0.96209
 Alpha virt. eigenvalues --    0.96218   0.97022   0.97527   0.97557   0.97766
 Alpha virt. eigenvalues --    0.98814   1.00831   1.02444   1.02564   1.02993
 Alpha virt. eigenvalues --    1.03204   1.03377   1.03473   1.03631   1.03842
 Alpha virt. eigenvalues --    1.04061   1.04383   1.04787   1.05047   1.05384
 Alpha virt. eigenvalues --    1.05604   1.06020   1.06251   1.06647   1.06910
 Alpha virt. eigenvalues --    1.07190   1.07490   1.07910   1.08398   1.08676
 Alpha virt. eigenvalues --    1.08964   1.09458   1.09920   1.10178   1.10380
 Alpha virt. eigenvalues --    1.10548   1.10740   1.11160   1.11832   1.12261
 Alpha virt. eigenvalues --    1.12804   1.15201   1.16704   1.17092   1.17621
 Alpha virt. eigenvalues --    1.18610   1.18645   1.18982   1.19196   1.19973
 Alpha virt. eigenvalues --    1.20239   1.20921   1.21197   1.21984   1.22577
 Alpha virt. eigenvalues --    1.23898   1.24379   1.26291   1.26467   1.27132
 Alpha virt. eigenvalues --    1.27932   1.28497   1.28594   1.28806   1.29054
 Alpha virt. eigenvalues --    1.29349   1.29753   1.29893   1.30014   1.30251
 Alpha virt. eigenvalues --    1.30270   1.30428   1.30585   1.30620   1.30647
 Alpha virt. eigenvalues --    1.30885   1.31105   1.31239   1.31400   1.31537
 Alpha virt. eigenvalues --    1.31567   1.31736   1.32030   1.32246   1.32335
 Alpha virt. eigenvalues --    1.32432   1.32549   1.32649   1.32752   1.32853
 Alpha virt. eigenvalues --    1.33047   1.33111   1.33220   1.33617   1.33961
 Alpha virt. eigenvalues --    1.34161   1.34451   1.34870   1.35187   1.36636
 Alpha virt. eigenvalues --    1.36702   1.36994   1.37331   1.37505   1.38683
 Alpha virt. eigenvalues --    1.38868   1.40134   1.40888   1.41062   1.41579
 Alpha virt. eigenvalues --    1.42112   1.42558   1.42892   1.43442   1.43966
 Alpha virt. eigenvalues --    1.44419   1.44642   1.44945   1.45374   1.45660
 Alpha virt. eigenvalues --    1.45916   1.46479   1.46808   1.47247   1.47524
 Alpha virt. eigenvalues --    1.48111   1.48620   1.48650   1.48715   1.49273
 Alpha virt. eigenvalues --    1.49571   1.50043   1.50235   1.50255   1.50602
 Alpha virt. eigenvalues --    1.51307   1.51419   1.51664   1.51734   1.51812
 Alpha virt. eigenvalues --    1.52146   1.52313   1.52857   1.53117   1.57326
 Alpha virt. eigenvalues --    1.61502   1.62780   1.67615   1.74030   1.75109
 Alpha virt. eigenvalues --    1.75418   1.75814   1.75874   1.76301   1.76400
 Alpha virt. eigenvalues --    1.76495   1.76547   1.76651   1.76746   1.76753
 Alpha virt. eigenvalues --    1.76851   1.76996   1.77179   1.77273   1.77485
 Alpha virt. eigenvalues --    1.77830   1.78026   1.78143   1.78205   1.78590
 Alpha virt. eigenvalues --    1.78769   1.78843   1.79052   1.79524   1.83121
 Alpha virt. eigenvalues --    1.83246   1.83359   1.85540   1.85924   1.86146
 Alpha virt. eigenvalues --    1.86206   1.86279   1.86554   1.87638   1.88128
 Alpha virt. eigenvalues --    1.88298   1.88936   1.89778   1.89846   1.90981
 Alpha virt. eigenvalues --    1.91945   1.92038   1.92202   1.92363   1.92584
 Alpha virt. eigenvalues --    1.92649   1.92798   1.92884   1.93078   1.93266
 Alpha virt. eigenvalues --    1.93494   1.93881   1.93907   1.94364   1.94434
 Alpha virt. eigenvalues --    1.94649   1.94707   1.94804   1.94902   1.95805
 Alpha virt. eigenvalues --    1.96036   1.96258   1.96556   1.96728   1.97229
 Alpha virt. eigenvalues --    1.97684   1.98167   1.98196   1.98575   1.98908
 Alpha virt. eigenvalues --    2.00298   2.01578   2.02160   2.02784   2.02940
 Alpha virt. eigenvalues --    2.03383   2.03551   2.04211   2.04534   2.05182
 Alpha virt. eigenvalues --    2.05612   2.05808   2.06561   2.07116   2.07452
 Alpha virt. eigenvalues --    2.07969   2.08209   2.08535   2.09114   2.09448
 Alpha virt. eigenvalues --    2.10082   2.10209   2.10636   2.10879   2.11148
 Alpha virt. eigenvalues --    2.11450   2.11615   2.12145   2.12396   2.13539
 Alpha virt. eigenvalues --    2.14160   2.14734   2.15504   2.15595   2.15730
 Alpha virt. eigenvalues --    2.16296   2.16588   2.16918   2.17605   2.17945
 Alpha virt. eigenvalues --    2.18068   2.18097   2.18229   2.18724   2.19198
 Alpha virt. eigenvalues --    2.19935   2.20477   2.21134   2.21238   2.21822
 Alpha virt. eigenvalues --    2.22109   2.22119   2.22523   2.22657   2.22749
 Alpha virt. eigenvalues --    2.23465   2.24175   2.24294   2.24395   2.25313
 Alpha virt. eigenvalues --    2.25941   2.26279   2.27128   2.27434   2.28312
 Alpha virt. eigenvalues --    2.28659   2.29416   2.29799   2.30682   2.31121
 Alpha virt. eigenvalues --    2.32010   2.32229   2.32968   2.33539   2.34109
 Alpha virt. eigenvalues --    2.34664   2.35462   2.35784   2.36139   2.36905
[...]
 0000183,0.00000090,-0.00000040,0.00000066,-0.00000038,0.00000245,0.000
 00050,-0.00000070,-0.00000088,-0.00000016,0.00000068,0.00000171,-0.000
 00231,0.00000135,-0.00000043,0.00000100,-0.00000052,0.00000280,0.00000
 109,-0.00000124,0.00000106,0.00000153,-0.00000030,0.00000377,0.0000017
 7,-0.00000209,0.00000088,0.00000032,-0.00000238,0.00000525,0.00000278,
 -0.00000232,0.00000412,0.00001023,0.00000895,0.00000675,0.00000390,-0.
 00000461,-0.00001145,-0.00002817,-0.00003438,0.00000959,0.00002139,0.0
 0000011,-0.00004351,0.00005991,0.00008259,0.00018797,-0.00005235,-0.00
 024613,-0.00112482,-0.00195407,-0.00377088,-0.01495043,0.00652372,0.00
 088915,-0.08821719,0.06585434,-0.00000079,0.00000042,-0.00000008,0.000
 00048,-0.00000101,0.00000035,-0.00000035,0.00000088,-0.00000037,0.0000
 0021,-0.00000106,0.00000041,-0.00000017,0.00000088,-0.00000036,0.00000
 010,-0.00000113,0.00000046,-0.00000010,0.00000089,-0.00000037,0.000000
 04,-0.00000120,0.00000050,-0.00000003,0.00000091,-0.00000038,0.0000000
 4,-0.00000127,0.00000051,-0.00000001,0.00000087,-0.00000034,-0.0000000
 2,-0.00000176,0.00000072,-0.00000009,0.00000116,-0.00000046,0.00000132
 ,0.00000122,-0.00000069,-0.00000112,-0.00000068,0.00000042,0.00000023,
 -0.00000148,0.00000058,-0.00000024,0.00000104,-0.00000042,0.00000007,-
 0.00000233,0.00000095,-0.00000021,0.00000171,-0.00000070,0.00000191,0.
 00000162,-0.00000095,-0.00000171,-0.00000098,0.00000062,0.00000041,-0.
 00000201,0.00000079,-0.00000044,0.00000158,-0.00000064,0.00000024,-0.0
 0000232,0.00000091,-0.00000025,0.00000176,-0.00000073,0.00000003,-0.00
 000267,0.00000110,-0.00000004,0.00000199,-0.00000089,-0.00000021,-0.00
 000303,0.00000127,0.00000022,0.00000227,-0.00000105,-0.00000046,-0.000
 00333,0.00000158,0.00000057,0.00000232,-0.00000116,-0.00000117,-0.0000
 0565,0.00000226,0.00000048,0.00000316,-0.00000136,0.00000359,0.0000050
 2,-0.00000266,-0.00000263,-0.00000269,0.00000132,-0.00000082,-0.000006
 70,0.00000347,-0.00000017,0.00000421,-0.00000225,0.00000494,0.00000546
 ,-0.00000479,-0.00000389,-0.00000304,0.00000248,-0.00000057,-0.0000079
 2,0.00000646,-0.00000111,0.00000453,-0.00000368,0.00000385,0.00000360,
 -0.00000738,-0.00000386,-0.00000474,0.00000538,0.00000576,0.00001466,-
 0.00000097,-0.00000446,-0.00001113,0.00000607,-0.00000904,-0.00001502,
 -0.00005173,-0.00000572,-0.00001312,0.00002135,0.00004893,0.00018601,0
 .00013887,-0.00007107,-0.00007077,0.00000598,-0.00026164,-0.00042949,-
 0.00101497,-0.00083218,-0.00006561,0.00052394,0.00198726,0.00766819,0.
 00470037,-0.01775339,0.00548283,0.00484339,0.02170606,0.00753593,-0.04
 369616,0.00000004,-0.00000002,0.00000002,0.,0.00000016,-0.00000005,0.,
 0.00000003,0.00000001,-0.00000003,0.00000019,-0.00000007,0.,0.00000004
 ,0.,-0.00000003,0.00000022,-0.00000009,0.,0.00000006,-0.00000002,-0.00
 000004,0.00000025,-0.00000010,0.,0.00000007,-0.00000003,-0.00000004,0.
 00000028,-0.00000011,0.00000002,0.00000009,-0.00000004,-0.00000014,0.0
 0000033,-0.00000012,0.00000010,-0.00000010,0.00000004,-0.00000035,-0.0
 0000009,0.00000009,0.00000013,0.00000001,-0.00000002,-0.00000009,0.000
 00030,-0.00000010,0.00000004,0.00000012,-0.00000004,-0.00000018,0.0000
 0041,-0.00000014,0.00000010,-0.00000015,0.00000006,-0.00000046,-0.0000
 0010,0.00000012,0.00000017,0.00000004,-0.00000002,-0.00000012,0.000000
 39,-0.00000013,0.00000003,0.00000018,-0.00000005,-0.00000010,0.0000005
 2,-0.00000018,0.,0.00000024,-0.00000007,-0.00000010,0.00000061,-0.0000
 0022,0.,0.00000027,-0.00000008,-0.00000012,0.00000071,-0.00000025,0.,0
 .00000031,-0.00000006,-0.00000013,0.00000081,-0.00000030,0.00000002,0.
 00000032,-0.00000015,-0.00000041,0.00000096,-0.00000030,0.00000021,-0.
 00000027,0.00000030,-0.00000106,-0.00000020,0.00000035,0.00000040,0.00
 000006,-0.00000012,-0.00000065,0.00000098,-0.00000032,0.00000027,-0.00
 000029,0.00000040,-0.00000141,-0.00000014,0.00000055,0.00000064,0.0000
 0022,0.,-0.00000097,0.00000136,-0.00000049,0.00000033,-0.00000049,0.00
 000043,-0.00000151,-0.00000028,0.00000104,-0.00000019,0.00000008,0.000
 00125,-0.00000212,-0.00000055,0.00000169,-0.00000095,-0.00000172,-0.00
 000053,-0.00000294,-0.00000027,0.00000287,0.00000327,0.00000952,0.0000
 1376,-0.00000462,-0.00000172,0.00000343,-0.00001114,-0.00003452,-0.000
 04220,-0.00000313,0.00000532,0.00002140,0.00007847,0.00004781,0.000082
 25,-0.00034548,-0.00013575,-0.00007156,-0.00129644,-0.00384275,-0.0033
 7786,0.01640556,-0.00524117,0.00184136,-0.01962345,-0.01108565,0.03604
 737,-0.27054370,0.12342320,-0.01800895,-0.01890440,0.01610846,-0.00345
 911,-0.00155262,-0.00335961,0.00316176,-0.00074576,0.00107562,-0.00030
 825,-0.00018545,-0.00039439,-0.00000948,-0.00011974,0.00010288,-0.0000
 3586,0.00001566,-0.00004852,0.00005934,-0.00003532,0.00002913,-0.00000
 598,0.00001707,-0.00003510,0.00000304,-0.00002127,0.00001771,-0.000004
 93,0.00001540,-0.00002274,0.00000885,-0.00002886,-0.00001439,0.0000098
 4,0.00002630,0.00001641,-0.00001082,-0.00000435,0.00002443,-0.00000962
 ,0.00000351,-0.00002614,0.00001040,-0.00000589,0.00000892,-0.00000291,
 0.00000489,-0.00001383,0.00000503,-0.00001357,-0.00000906,0.00000564,0
 .00001422,0.00001273,-0.00000735,-0.00000070,0.00001366,-0.00000569,-0
 .00000019,-0.00001775,0.00000746,-0.00000123,0.00000649,-0.00000260,0.
 00000123,-0.00001029,0.00000413,-0.00000143,0.00000639,-0.00000248,0.0
 0000127,-0.00000905,0.00000357,-0.00000175,0.00000555,-0.00000210,0.00
 000154,-0.00000791,0.00000311,-0.00000199,0.00000484,-0.00000187,0.000
 00179,-0.00000677,0.00000269,-0.00000221,0.00000432,-0.00000145,0.0000
 0224,-0.00000575,0.00000207,-0.00000601,-0.00000359,0.00000248,0.00000
 642,0.00000460,-0.00000315,-0.00000107,0.00000615,-0.00000310,0.000000
 79,-0.00000687,0.00000366,-0.00000386,-0.00000263,0.00000268,0.0000046
 0,0.00000404,-0.00000396,-0.00000044,0.00000362,-0.00000278,-0.0000001
 1,-0.00000516,0.00000420,-0.00000203,-0.00000184,0.00000225,0.00000339
 ,0.00000369,-0.00000441,-0.00000153,-0.00000202,0.00000197,0.00000240,
 0.00000280,-0.00000285,-0.00000176,-0.00000198,0.00000218,0.00000241,0
 .00000221,-0.00000273,-0.00000201,-0.00000157,0.00000194,0.00000268,0.
 00000178,-0.00000233,-0.00000216,-0.00000122,0.00000167,0.00000276,0.0
 0000153,-0.00000216,-0.00000229,-0.00000096,0.00000151,0.00000281,0.00
 000132,-0.00000196,-0.00000255,-0.00000066,0.00000146,0.00000290,0.000
 00103,-0.00000171,-0.00000258,0.00000073,0.00000017,0.00387320,-0.0028
 1958,0.00094189,0.00088971,-0.00048547,-0.00086292,0.00016117,0.000065
 20,-0.00008713,0.00000562,-0.00005870,0.00004287,0.00001460,0.00001674
 ,-0.00000545,0.00000028,-0.00000371,-0.00000853,-0.00000055,0.00001004
 ,-0.00000395,0.00000077,0.00000410,0.00000130,-0.00000169,0.00000734,-
 0.00000251,0.00000030,0.00000254,-0.00000137,-0.00000165,0.00000504,-0
 .00000172,0.00000170,0.00000111,-0.00000045,-0.00000527,-0.00000141,0.
 00000137,0.00000049,-0.00000193,0.00000076,-0.00000191,0.00000430,-0.0
 0000146,0.00000023,0.00000155,-0.00000064,-0.00000096,0.00000310,-0.00
 000112,0.00000111,0.00000062,-0.00000036,-0.00000323,-0.00000091,0.000
 00086,0.00000046,-0.00000119,0.00000046,-0.00000121,0.00000305,-0.0000
 0108,0.00000005,0.00000121,-0.00000047,-0.00000042,0.00000262,-0.00000
 102,-0.00000002,0.00000104,-0.00000042,-0.00000038,0.00000228,-0.00000
 087,0.,0.00000093,-0.00000036,-0.00000034,0.00000194,-0.00000074,0.000
 00002,0.00000084,-0.00000032,-0.00000034,0.00000165,-0.00000062,0.0000
 0008,0.00000066,-0.00000032,-0.00000041,0.00000122,-0.00000047,0.00000
 053,0.00000003,-0.00000009,-0.00000153,-0.00000047,0.00000050,0.000000
 24,-0.00000045,0.00000017,-0.00000063,0.00000101,-0.00000041,0.0000004
 8,-0.00000003,0.00000004,-0.00000124,-0.00000030,0.00000049,0.00000021
 ,-0.00000040,0.00000010,-0.00000056,0.00000082,-0.00000042,0.00000050,
 -0.00000006,0.00000011,-0.00000121,-0.00000039,0.00000070,-0.00000017,
 -0.00000023,0.00000019,-0.00000071,-0.00000038,0.00000055,-0.00000017,
 -0.00000011,0.00000021,-0.00000061,-0.00000029,0.00000051,-0.00000015,
 -0.00000011,0.00000016,-0.00000057,-0.00000027,0.00000045,-0.00000016,
 -0.00000012,0.00000014,-0.00000052,-0.00000028,0.00000043,-0.00000014,
 -0.00000012,0.00000012,-0.00000046,-0.00000028,0.00000038,-0.00000011,
 -0.00000013,0.00000008,-0.00000029,-0.00000029,0.00000029,0.,-0.000000
 16,0.00000008,0.00000001,0.00000018,-0.00000015,0.28713844,0.12756895,
 -0.12658026,0.02174464,-0.01416650,0.01015147,-0.00052020,-0.00142019,
 0.00035744,0.00479534,-0.00030495,0.00079387,-0.00019043,-0.00032586,-
 0.00035639,-0.00040128,0.00003944,0.00005911,-0.00005951,-0.00004723,0
 .00001711,0.00012474,0.00003178,0.00001952,-0.00000866,-0.00003009,-0.
 00001807,-0.00001581,0.00001725,0.00000767,-0.00000723,-0.00001383,-0.
 00000342,0.00000845,0.00000868,0.00000156,-0.00000192,-0.00000351,0.00
 000804,-0.00000398,0.00000265,-0.00000438,0.00000135,-0.00000530,-0.00
 000281,0.00000185,0.00000373,0.00000230,-0.00000156,-0.00000332,-0.000
 00196,0.00000120,0.00000173,0.00000015,-0.00000039,-0.00000041,0.00000
 262,-0.00000109,0.00000078,-0.00000089,0.00000022,-0.00000163,-0.00000
 137,0.00000076,0.00000122,0.00000094,-0.00000056,-0.00000116,-0.000000
 93,0.00000051,0.00000081,0.00000077,-0.00000049,-0.00000072,-0.0000007
 9,0.00000044,0.00000052,0.00000067,-0.00000037,-0.00000040,-0.00000068
 ,0.00000032,0.00000026,0.00000058,-0.00000024,-0.00000018,-0.00000057,
 0.00000022,0.00000004,0.00000049,-0.00000022,-0.00000011,-0.00000051,0
 .00000026,-0.00000027,0.00000003,0.00000004,0.00000032,0.00000023,-0.0
 0000015,-0.00000007,0.00000002,-0.00000002,0.,-0.00000029,0.00000015,-
 0.00000021,-0.00000003,0.00000008,0.00000024,0.00000007,-0.00000009,-0
 .00000007,0.00000011,-0.00000009,0.00000005,-0.00000014,0.00000013,-0.
 00000020,-0.00000008,0.00000013,0.00000018,0.,-0.00000003,-0.00000012,
 0.00000007,0.00000001,0.00000021,-0.00000003,0.,-0.00000008,0.00000005
 ,-0.00000003,0.00000016,0.00000009,-0.00000001,0.,-0.00000005,0.,0.000
 00001,0.00000016,-0.00000007,-0.00000004,-0.00000008,0.00000005,0.0000
 0006,0.00000010,-0.00000004,-0.00000003,-0.00000009,0.00000004,0.00000
 005,0.00000007,-0.00000003,-0.00000009,-0.00000012,0.,0.00000020,-0.00
 000006,0.,-0.00000008,0.00000003,-0.00000002,0.02279831,-0.00875866,0.
 00143427,-0.00018280,0.00011049,-0.00285545,-0.00039595,0.00028233,-0.
 00017832,0.00008640,0.00001367,0.00004180,-0.00000508,0.00001330,0.000
 00547,-0.00000301,-0.00001163,-0.00002507,-0.00000200,0.00000368,-0.00
 000096,0.00000168,0.00000364,0.00000750,-0.00000111,0.00000204,0.00000
 004,0.00000015,-0.00000011,-0.00000088,-0.00000059,0.00000100,-0.00000
 009,0.00000052,0.00000015,0.00000046,-0.00000073,0.00000021,0.00000018
 ,0.00000057,0.,0.,-0.00000053,0.00000068,-0.00000011,0.00000010,0.0000
 0010,0.00000002,-0.00000018,0.00000035,-0.00000004,0.00000018,0.,0.000
 00004,-0.00000031,0.00000004,0.00000007,0.00000022,0.,0.00000003,-0.00
 000020,0.00000031,-0.00000007,0.00000003,0.00000004,0.,-0.00000005,0.0
 0000019,-0.00000004,0.,0.00000004,0.,-0.00000005,0.00000015,-0.0000000
 5,0.,0.00000002,0.,-0.00000004,0.00000012,-0.00000004,0.,0.,0.,-0.0000
 0003,0.00000010,-0.00000003,0.,-0.00000003,0.00000001,-0.00000003,0.00
 000007,-0.00000003,0.00000006,0.00000005,-0.00000003,-0.00000003,0.000
 00008,-0.00000003,0.00000004,-0.00000002,0.00000001,-0.00000007,0.0000
 0005,-0.00000002,0.00000004,0.00000002,-0.00000001,-0.00000003,0.00000
 003,-0.00000003,0.00000003,0.,-0.00000001,-0.00000005,0.00000005,-0.00
 000003,0.00000002,0.,-0.00000002,-0.00000002,0.00000002,-0.00000002,-0
 .00000002,-0.00000002,0.,-0.00000006,-0.00000005,0.00000003,-0.0000000
 1,-0.00000002,0.,-0.00000007,-0.00000007,0.00000002,-0.00000001,-0.000
 00002,0.,-0.00000004,-0.00000005,0.00000001,0.,0.,0.00000001,-0.000000
 02,-0.00000002,0.,0.,0.,0.00000001,0.,0.,-0.00000001,0.,0.00000003,0.0
 0000003,-0.00000003,0.00000005,0.,0.00000002,0.00000005,-0.00000001,-0
 .00000013,0.00000005,0.,-0.13364776,0.12388612,-0.01970624,0.02230735,
 -0.03759063,0.00893428,-0.00463165,0.00486289,0.00236747,0.00505895,0.
 00920859,0.00025690,-0.00037783,0.00034729,-0.00003758,-0.00039214,-0.
 00127918,-0.00000983,-0.00006817,-0.00004399,0.00005877,0.00012497,0.0
 0024700,-0.00000702,-0.00000831,0.00001322,0.00000097,-0.00001518,-0.0
 0006060,-0.00000477,-0.00000729,-0.00000065,0.00000528,0.00000959,0.00
 000786,0.00000031,0.00000121,-0.00000088,-0.00000250,-0.00000668,0.000
 00029,-0.00000055,-0.00000166,0.00000052,0.00000168,0.00000464,-0.0000
 0233,-0.00000076,-0.00000225,0.00000078,0.00000067,0.00000261,-0.00000
 132,0.00000111,0.00000108,-0.00000086,-0.00000180,-0.00000288,0.000001
 32,-0.00000023,-0.00000157,0.00000055,0.00000066,0.00000293,-0.0000014
 7,-0.00000033,-0.00000132,0.00000051,0.00000028,0.00000176,-0.00000087
 ,-0.00000014,-0.00000125,0.00000044,0.00000011,0.00000152,-0.00000072,
 0.00000001,-0.00000106,0.00000037,-0.00000005,0.00000131,-0.00000060,0
 .00000015,-0.00000091,0.00000032,-0.00000017,0.00000110,-0.00000051,0.
 00000026,-0.00000079,0.00000024,-0.00000025,0.00000096,-0.00000040,0.0
 0000090,0.00000048,-0.00000039,-0.00000098,-0.00000075,0.00000047,0.00
 000014,-0.00000087,0.00000041,-0.00000010,0.00000106,-0.00000060,0.000
 00059,0.00000037,-0.00000041,-0.00000072,-0.00000062,0.00000058,0.0000
 0006,-0.00000054,0.00000039,0.00000002,0.00000078,-0.00000066,0.000000
 33,0.00000025,-0.00000035,-0.00000054,-0.00000055,0.00000065,0.0000002
 5,0.00000030,-0.00000031,-0.00000040,-0.00000041,0.00000041,0.00000027
 ,0.00000026,-0.00000032,-0.00000038,-0.00000033,0.00000040,0.00000028,
 0.00000021,-0.00000029,-0.00000039,-0.00000028,0.00000034,0.00000030,0
 .00000017,-0.00000025,-0.00000040,-0.00000023,0.00000031,0.00000032,0.
 00000013,-0.00000022,-0.00000040,-0.00000019,0.00000027,0.00000034,0.0
 0000008,-0.00000021,-0.00000047,-0.00000011,0.00000022,0.00000035,-0.0
 0000016,0.,-0.00954480,0.00491346,0.00159407,-0.00098633,-0.00281435,-
 0.00563992,0.00010146,-0.00024101,-0.00019960,-0.00001652,0.00006152,0
 .00012154,0.00000348,0.00000252,0.00002347,-0.00000883,-0.00002497,-0.
 00006240,0.00000099,-0.00000259,0.00000160,0.00000227,0.00000720,0.000
 01930,0.00000093,-0.00000108,0.00000214,-0.00000039,-0.00000119,-0.000
 00161,0.00000056,-0.00000082,0.00000093,-0.00000024,0.00000040,0.00000
 137,0.00000108,0.00000028,0.00000014,-0.00000026,0.00000036,0.00000012
 ,0.00000052,-0.00000073,0.00000055,-0.00000005,-0.00000017,0.00000027,
 0.00000023,-0.00000047,0.00000038,-0.00000020,0.,0.00000023,0.00000059
 ,0.00000017,-0.00000001,-0.00000013,0.00000024,0.00000009,0.00000026,-
 0.00000050,0.00000029,0.,-0.00000013,0.00000017,0.00000009,-0.00000039
 ,0.00000025,0.00000001,-0.00000011,0.00000014,0.00000008,-0.00000033,0
 .00000020,0.00000001,-0.00000009,0.00000011,0.00000007,-0.00000028,0.0
 0000016,0.,-0.00000008,0.00000009,0.00000007,-0.00000024,0.00000014,0.
 ,-0.00000006,0.00000008,0.00000007,-0.00000018,0.00000011,-0.00000010,
 -0.00000001,0.00000006,0.00000023,0.00000005,-0.00000004,-0.00000005,0
 .00000008,0.,0.00000012,-0.00000015,0.00000009,-0.00000008,0.00000001,
 0.00000002,0.00000020,0.00000004,-0.00000005,-0.00000004,0.00000007,0.
 ,0.00000010,-0.00000012,0.00000008,-0.00000008,0.00000002,0.,0.0000002
 0,0.00000006,-0.00000009,0.00000003,0.00000004,-0.00000001,0.00000013,
 0.00000008,-0.00000008,0.00000003,0.00000003,-0.00000002,0.00000010,0.
 00000006,-0.00000007,0.00000003,0.00000003,-0.00000002,0.00000009,0.00
 000005,-0.00000006,0.00000003,0.00000003,-0.00000001,0.00000008,0.0000
 0005,-0.00000006,0.00000003,0.00000003,-0.00000001,0.00000007,0.000000
 04,-0.00000004,0.00000004,0.00000003,-0.00000001,0.00000006,0.00000003
 ,-0.00000003,0.00000002,0.00000003,0.,0.00000004,-0.00000003,0.0000000
 3,0.01858763,-0.02389501,0.02842837\\0.00000050,-0.00000024,0.00000007
 ,0.00000033,0.00000005,-0.00000005,0.00000075,0.00000008,-0.00000008,-
 0.00000072,0.,0.00000012,0.00000145,0.00000025,-0.00000023,-0.00000174
 ,-0.00000018,0.00000037,0.00000208,0.00000022,-0.00000028,-0.00000261,
 -0.00000028,0.00000054,0.00000246,0.00000019,-0.00000026,-0.00000286,-
 0.00000034,0.00000062,0.00000243,0.00000035,-0.00000031,-0.00000362,-0
 .00000003,0.00000053,0.00000230,-0.00000204,0.00000077,-0.00000164,0.0
 0000222,-0.00000059,0.00000297,-0.00000030,0.00000013,-0.00000125,-0.0
 0000047,0.00000058,0.00000100,0.00000038,0.00000006,-0.00000127,-0.000
 00045,0.00000023,0.00000044,0.00000001,0.00000053,0.00000014,0.0000005
 2,-0.00000024,-0.00000031,-0.00000030,0.00000069,0.00000138,0.,0.00000
 016,-0.00000224,-0.00000019,0.00000095,0.00000228,0.00000044,-0.000000
 05,-0.00000266,-0.00000035,0.00000087,0.00000307,0.00000062,-0.0000002
 7,-0.00000306,-0.00000036,0.00000092,0.00000348,0.00000062,-0.00000032
 ,-0.00000346,-0.00000034,0.00000104,0.00000417,0.00000072,-0.00000001,
 -0.00000381,-0.00000030,0.00000104,0.00000373,0.00000059,-0.00000062,-
 0.00000293,0.00000317,-0.00000097,0.00000064,-0.00000252,0.00000143,-0
 .00000232,-0.00000049,0.00000077,0.00000370,0.00000049,-0.00000090,-0.
 00000227,0.00000216,-0.00000028,-0.00000058,-0.00000077,0.00000161,-0.
 00000047,-0.00000036,0.00000052,0.00000145,0.00000098,0.00000006,0.000
 00053,-0.00000004,0.00000010,0.00000010,0.00000029,0.00000050,0.000000
 28,-0.00000071,0.00000017,-0.00000065,0.00000069,0.00000003,0.00000116
 ,-0.00000116,0.00000092,-0.00000095,0.00000120,-0.00000037,0.00000110,
 -0.00000107,0.00000079,-0.00000087,0.00000122,-0.00000043,0.00000093,-
 0.00000087,0.00000062,-0.00000042,0.00000089,-0.00000033,0.00000038,-0
 .00000024,0.00000021,-0.00000045,0.00000068,-0.00000023,-0.00000023,0.
 00000041,-0.00000010,-0.00000032,0.00000017,0.00000020,-0.00000009,0.0
 0000004,0.00000007,0.00000016,-0.00000037,0.00000011,-0.00000036,0.000
 00035,-0.00000002,0.00000032,-0.00000046,0.00000011,-0.00000040,0.0000
 0042,-0.00000009,0.00000039,-0.00000048,0.00000007,-0.00000044,0.00000
 048,-0.00000016,0.00000047,-0.00000040,-0.00000001,-0.00000048,0.00000
 041,-0.00000020,0.00000050,-0.00000034,-0.00000012,-0.00000036,0.00000
 024,-0.00000012,0.00000045,-0.00000011,-0.00000017,-0.00000031,0.00000
 015,-0.00000020,0.00000011,-0.00000030,-0.00000014,-0.00000052,0.00000
 011,-0.00000019,0.00000019,-0.00000039,-0.00000031,-0.00000032,0.00000
 025,-0.00000021,0.00000023,-0.00000025,-0.00000015,-0.00000023,0.00000
 006,0.00000014,0.,-0.00000012,-0.00000033,-0.00000015,0.00000003,-0.00
 000030,0.00000002,-0.00000044,-0.00000074,-0.00000015,0.00000002,-0.00
 000044,0.00000004,-0.00000020,-0.00000034,-0.00000009,-0.00000011,-0.0
 0000037,-0.00000006,-0.00000026,-0.00000030,-0.00000003,-0.00000006,-0
 .00000041,-0.00000009,-0.00000041,-0.00000027,0.00000001,0.00000005,-0
 .00000053,-0.00000018,-0.00000063,-0.00000029,0.00000002,-0.00000008,-
 0.00000148,-0.00000028,-0.00000055,-0.00000019,-0.00000033,-0.00000032
 ,0.00000045,0.00000030,0.00000087,0.00000031,0.,0.00000034,-0.00000051
 ,0.00000012,-0.00000115,-0.00000047,-0.00000063,-0.00000040,0.00000007
 ,0.00000065,0.00000006,-0.00000061,-0.00000005,-0.00000058,-0.00000143
 ,0.00000040,-0.00000084,-0.00000036,-0.00000024,-0.00000026,-0.0000002
 7,0.00000055,0.00000049,0.00000014,-0.00000042,0.,-0.00000013,0.000000
 41,-0.00000020,-0.00000041,-0.00000059,0.00000013,-0.00000013,0.000000
 50,-0.00000015,-0.00000037,-0.00000060,0.00000010,0.,0.00000052,-0.000
 00012,-0.00000028,-0.00000059,0.00000011,0.00000008,0.00000049,-0.0000
 0007,-0.00000020,-0.00000053,0.00000008,0.00000019,0.00000045,-0.00000
 007,-0.00000008,-0.00000032,0.00000009,0.00000016,0.00000004,0.,0.0000
 0007,0.00000013,0.00000006,0.00000003,-0.00000007,-0.00000003,0.000000
 07\\\@


    WHAT WE HAVE LEARNED
 IS LIKE A HANDFUL OF EARTH;
  WHAT WE HAVE YET TO LEARN
   IS LIKE THE WHOLE WORLD.

         -- AVVAYIAR
 Job cpu time:       0 days  6 hours 34 minutes 32.2 seconds.
 Elapsed time:       0 days  6 hours 34 minutes 37.4 seconds.
 File lengths (MBytes):  RWF=  11761 Int=      0 D2E=      0 Chk=     99 Scr=      1
 Normal termination of Gaussian 16 at Mon Oct 30 05:46:08 2023.
