 Entering Gaussian System, Link 0=g16
 Input=./com/28.com
 Output=./log/28.log
 Initial command:
 /home/shohei/gaussian/g16/l1.exe "/home/shohei/gaussian/scratch/Gau-26568.inp" -scrdir="/home/shohei/gaussian/scratch/"
 Entering Link 1 = /home/shohei/gaussian/g16/l1.exe PID=     26570.
  
 Copyright (c) 1988-2017, Gaussian, Inc.  All Rights Reserved.
  
 This is part of the Gaussian(R) 16 program.  It is based on
 the Gaussian(R) 09 system (copyright 2009, Gaussian, Inc.),
 the Gaussian(R) 03 system (copyright 2003, Gaussian, Inc.),
 the Gaussian(R) 98 system (copyright 1998, Gaussian, Inc.),
 the Gaussian(R) 94 system (copyright 1995, Gaussian, Inc.),
 the Gaussian 92(TM) system (copyright 1992, Gaussian, Inc.),
 the Gaussian 90(TM) system (copyright 1990, Gaussian, Inc.),
 the Gaussian 88(TM) system (copyright 1988, Gaussian, Inc.),
 the Gaussian 86(TM) system (copyright 1986, Carnegie Mellon
 University), and the Gaussian 82(TM) system (copyright 1983,
 Carnegie Mellon University). Gaussian is a federally registered
 trademark of Gaussian, Inc.
  
 This software contains proprietary and confidential information,
 including trade secrets, belonging to Gaussian, Inc.
  
 This software is provided under written license and may be
 used, copied, transmitted, or stored only in accord with that
 written license.
  
 The following legend is applicable only to US Government
 contracts under FAR:
  
                    RESTRICTED RIGHTS LEGEND
  
 Use, reproduction and disclosure by the US Government is
 subject to restrictions as set forth in subparagraphs (a)
 and (c) of the Commercial Computer Software - Restricted
 Rights clause in FAR 52.227-19.
  
 Gaussian, Inc.
 340 Quinnipiac St., Bldg. 40, Wallingford CT 06492
  
  
 ---------------------------------------------------------------
 Warning -- This program may not be used in any manner that
 competes with the business of Gaussian, Inc. or will provide
 assistance to any competitor of Gaussian, Inc.  The licensee
 of this program is prohibited from giving any competitor of
 Gaussian, Inc. access to this program.  By using this program,
 the user acknowledges that Gaussian, Inc. is engaged in the
 business of creating and licensing software in the field of
 computational chemistry and represents and warrants to the
 licensee that it is not a competitor of Gaussian, Inc. and that
 it will not use this program in any manner prohibited above.
 ---------------------------------------------------------------
  

 Cite this work as:
 Gaussian 16, Revision B.01,
 M. J. Frisch, G. W. Trucks, H. B. Schlegel, G. E. Scuseria, 
 M. A. Robb, J. R. Cheeseman, G. Scalmani, V. Barone, 
 G. A. Petersson, H. Nakatsuji, X. Li, M. Caricato, A. V. Marenich, 
 J. Bloino, B. G. Janesko, R. Gomperts, B. Mennucci, H. P. Hratchian, 
 J. V. Ortiz, A. F. Izmaylov, J. L. Sonnenberg, D. Williams-Young, 
 F. Ding, F. Lipparini, F. Egidi, J. Goings, B. Peng, A. Petrone, 
 T. Henderson, D. Ranasinghe, V. G. Zakrzewski, J. Gao, N. Rega, 
 G. Zheng, W. Liang, M. Hada, M. Ehara, K. Toyota, R. Fukuda, 
 J. Hasegawa, M. Ishida, T. Nakajima, Y. Honda, O. Kitao, H. Nakai, 
 T. Vreven, K. Throssell, J. A. Montgomery, Jr., J. E. Peralta, 
 F. Ogliaro, M. J. Bearpark, J. J. Heyd, E. N. Brothers, K. N. Kudin, 
 V. N. Staroverov, T. A. Keith, R. Kobayashi, J. Normand, 
 K. Raghavachari, A. P. Rendell, J. C. Burant, S. S. Iyengar, 
 J. Tomasi, M. Cossi, J. M. Millam, M. Klene, C. Adamo, R. Cammi, 
 J. W. Ochterski, R. L. Martin, K. Morokuma, O. Farkas, 
 J. B. Foresman, and D. J. Fox, Gaussian, Inc., Wallingford CT, 2016.
 
 ******************************************
 Gaussian 16:  EM64L-G16RevB.01 20-Dec-2017
                30-Oct-2023 
 ******************************************
 %chk=./chk/28.chk
 ---------------------------
 # B3LYP/6-31G(d,p) OPT FREQ
 ---------------------------
 1/18=20,19=15,26=3,38=1/1,3;
 2/9=110,12=2,17=6,18=5,40=1/2;
 3/5=1,6=6,7=101,11=2,25=1,30=1,71=1,74=-5/1,2,3;
 4//1;
 5/5=2,38=5/2;
 6/7=2,8=2,9=2,10=2,28=1/1;
 7//1,2,3,16;
 1/18=20,19=15,26=3/3(2);
 2/9=110/2;
 99//99;
 2/9=110/2;
 3/5=1,6=6,7=101,11=2,25=1,30=1,71=1,74=-5/1,2,3;
 4/5=5,16=3,69=1/1;
 5/5=2,38=5/2;
 7//1,2,3,16;
 1/18=20,19=15,26=3/3(-5);
 2/9=110/2;
 6/7=2,8=2,9=2,10=2,19=2,28=1/1;
 99/9=1/99;
 ------
 28poly
 ------
 Symbolic Z-matrix:
 Charge =  0 Multiplicity = 1
 C                    -34.77557   3.24236   0.2849 
 C                    -33.71254   3.87845  -0.21281 
 C                    -32.34045   3.42422   0.09163 
 C                    -31.27532   4.06458  -0.40843 
 C                    -29.90428   3.60927  -0.0993 
 C                    -28.83546   4.24798  -0.59373 
 C                    -27.46795   3.78981  -0.27399 
 C                    -26.39257   4.42614  -0.75703 
 C                    -25.03078   3.96339  -0.42029 
 C                    -23.94594   4.5965   -0.88598 
 C                    -22.59227   4.12728  -0.52635 
 C                    -21.49536   4.75579  -0.97006 
 C                    -20.15038   4.27906  -0.58412 
 C                    -19.04239   4.91042  -1.01161 
 C                    -17.64899   4.51654  -0.66495 
 C                    -17.32242   3.47223   0.12497 
 C                    -15.93674   3.07734   0.48806 
 C                    -14.81632   3.70139   0.08386 
 C                    -13.49236   3.20976   0.5233 
 C                    -12.36083   3.81474   0.1204 
 C                    -10.98543   3.39222   0.50119 
 C                    -10.69912   2.36527   1.32902 
 C                    -9.32807   1.92449   1.69705 
 C                    -8.18812   2.47264   1.24205 
 C                    -6.87985   1.91769   1.6477 
 C                    -5.73841   2.40757   1.14726 
 C                    -4.43775   1.80639   1.505 
 C                    -3.30721   2.22528   0.92296 
 C                    -2.01699   1.56844   1.21429 
 C                    -0.916     1.89927   0.52838 
 C                     0.35711   1.18135   0.73998 
 C                     1.40499   1.41626  -0.05957 
 C                     2.65541   0.63894   0.06526 
 C                     3.62713   0.78887  -0.85045 
 C                     4.88979   0.01033  -0.89918 
 C                     5.29282  -0.88129   0.031 
 C                     6.53574  -1.69844  -0.06889 
 C                     7.31449  -1.75839  -1.16932 
 C                     8.53469  -2.59015  -1.31885 
 C                     9.11313  -3.32043  -0.34251 
 C                     10.34228  -4.1437   -0.53054 
 C                     10.92112  -4.38235  -1.72665 
 C                     12.15631  -5.17637  -1.93988 
 C                     12.93869  -5.68221  -0.97194 
 C                     14.17375  -6.40743  -1.33712 
 C                     15.04973  -6.81694  -0.41118 
 C                     16.30417  -7.48105  -0.82134 
 C                     17.25593  -7.78788   0.06862 
 C                     18.52704  -8.39431  -0.37827 
 C                     19.53389  -8.60843   0.47775 
 C                     20.81655  -9.16822   0.00357 
 C                     21.85791  -9.31191   0.83291 
 C                     23.14733  -9.84083   0.34166 
 C                     24.20659  -9.94207   1.15472 
 C                     25.49837  -10.45614   0.65535 
 C                     26.56298  -10.54211   1.45596 
 H                    -34.66108   2.37368   0.92671 
 H                    -33.86799   4.74408  -0.85107 
 H                    -32.19811   2.55702   0.73265 
 H                    -31.417    4.93209  -1.04894 
 H                    -29.76535   2.74234   0.54281 
 H                    -28.97129   5.11589  -1.23488 
 H                    -27.33697   2.92247   0.36927 
 H                    -26.51871   5.29513  -1.39862 
 H                    -24.91188   3.09495   0.22388 
 H                    -24.05835   5.46714  -1.52783 
 H                    -22.48977   3.25731   0.11859 
 H                    -21.59216   5.62801  -1.6123 
 H                    -20.08963   3.41059   0.05912 
 H                    -19.15245   5.77982  -1.65426 
 H                    -16.87397   5.13982  -1.09155 
 H                    -18.09448   2.8482    0.55356 
 H                    -15.84486   2.21085   1.13777 
 H                    -14.85609   4.56847  -0.56416 
 H                    -13.46481   2.34612   1.17539 
 H                    -12.43528   4.6745   -0.54006 
 H                    -10.18793   3.97411   0.05826 
 H                    -11.49475   1.78506   1.77605 
 H                    -9.26439   1.07805   2.3758 
 H                    -8.19948   3.30936   0.55451 
 H                    -6.84846   1.0784    2.33875 
 H                    -5.76796   3.23342   0.44018 
 H                    -4.40711   0.98521   2.2174 
 H                    -3.34285   3.02796   0.18983 
 H                    -1.97545   0.77393   1.9557 
 H                    -0.96954   2.67173  -0.23561 
 H                     0.423     0.41945   1.51308 
 H                     1.31826   2.15568  -0.8528 
 H                     2.74293  -0.08225   0.86927 
 H                     3.47622   1.50001  -1.6586 
 H                     5.49331   0.20045  -1.77554 
 H                     4.697    -1.04511   0.92009 
 H                     6.77675  -2.29678   0.80057 
 H                     7.0545   -1.19398  -2.05362 
 H                     8.96563  -2.56418  -2.30974 
 H                     8.69933  -3.31468   0.65805 
 H                     10.76442  -4.57027   0.3707 
 H                     10.48749  -3.98821  -2.63466 
 H                     12.45089  -5.32167  -2.97628 
 H                     12.70523  -5.53956   0.0769 
 H                     14.39101  -6.57871  -2.3895 
 H                     14.85854  -6.62725   0.64243 
 H                     16.46938  -7.69039  -1.8762 
 H                     17.11017  -7.55831   1.12163 
 H                     18.65423  -8.64148  -1.43011 
 H                     19.41979  -8.34356   1.52643 
 H                     20.91906  -9.44669  -1.04305 
 H                     21.76285  -9.02079   1.87654 
 H                     23.23646  -10.14048  -0.70027 
 H                     24.12159  -9.6357    2.19488 
 H                     25.59309  -10.76843  -0.38132 
 H                     26.50929  -10.23725   2.49692 
 H                     27.50341  -10.92018   1.06825 
 H                    -35.77567   3.59186   0.04992 
 

 GradGradGradGradGradGradGradGradGradGradGradGradGradGradGradGradGradGrad
 Berny optimization.
 Initialization pass.
                           ----------------------------
                           !    Initial Parameters    !
                           ! (Angstroms and Degrees)  !
 --------------------------                            --------------------------
 ! Name  Definition              Value          Derivative Info.                !
 --------------------------------------------------------------------------------
 ! R1    R(1,2)                  1.335          estimate D2E/DX2                !
 ! R2    R(1,57)                 1.0861         estimate D2E/DX2                !
 ! R3    R(1,114)                1.0852         estimate D2E/DX2                !
 ! R4    R(2,3)                  1.477          estimate D2E/DX2                !
 ! R5    R(2,58)                 1.0867         estimate D2E/DX2                !
 ! R6    R(3,4)                  1.3396         estimate D2E/DX2                !
 ! R7    R(3,59)                 1.0878         estimate D2E/DX2                !
 ! R8    R(4,5)                  1.4774         estimate D2E/DX2                !
 ! R9    R(4,60)                 1.0876         estimate D2E/DX2                !
 ! R10   R(5,6)                  1.3397         estimate D2E/DX2                !
 ! R11   R(5,61)                 1.0877         estimate D2E/DX2                !
 ! R12   R(6,7)                  1.4772         estimate D2E/DX2                !
 ! R13   R(6,62)                 1.0876         estimate D2E/DX2                !
 ! R14   R(7,8)                  1.3397         estimate D2E/DX2                !
 ! R15   R(7,63)                 1.0878         estimate D2E/DX2                !
 ! R16   R(8,9)                  1.4772         estimate D2E/DX2                !
 ! R17   R(8,64)                 1.0875         estimate D2E/DX2                !
 ! R18   R(9,10)                 1.3396         estimate D2E/DX2                !
 ! R19   R(9,65)                 1.0878         estimate D2E/DX2                !
 ! R20   R(10,11)                1.4771         estimate D2E/DX2                !
 ! R21   R(10,66)                1.0875         estimate D2E/DX2                !
 ! R22   R(11,12)                1.3398         estimate D2E/DX2                !
 ! R23   R(11,67)                1.0878         estimate D2E/DX2                !
 ! R24   R(12,13)                1.4782         estimate D2E/DX2                !
 ! R25   R(12,68)                1.0875         estimate D2E/DX2                !
 ! R26   R(13,14)                1.345          estimate D2E/DX2                !
 ! R27   R(13,69)                1.0824         estimate D2E/DX2                !
 ! R28   R(14,15)                1.4889         estimate D2E/DX2                !
 ! R29   R(14,70)                1.0867         estimate D2E/DX2                !
 ! R30   R(15,16)                1.3495         estimate D2E/DX2                !
 ! R31   R(15,71)                1.0822         estimate D2E/DX2                !
 ! R32   R(16,17)                1.4859         estimate D2E/DX2                !
 ! R33   R(16,72)                1.0813         estimate D2E/DX2                !
 ! R34   R(17,18)                1.3447         estimate D2E/DX2                !
 ! R35   R(17,73)                1.0869         estimate D2E/DX2                !
 ! R36   R(18,19)                1.4791         estimate D2E/DX2                !
 ! R37   R(18,74)                1.0832         estimate D2E/DX2                !
 ! R38   R(19,20)                1.3449         estimate D2E/DX2                !
 ! R39   R(19,75)                1.0825         estimate D2E/DX2                !
 ! R40   R(20,21)                1.4884         estimate D2E/DX2                !
 ! R41   R(20,76)                1.0867         estimate D2E/DX2                !
 ! R42   R(21,22)                1.3498         estimate D2E/DX2                !
 ! R43   R(21,77)                1.082          estimate D2E/DX2                !
 ! R44   R(22,23)                1.4864         estimate D2E/DX2                !
 ! R45   R(22,78)                1.0814         estimate D2E/DX2                !
 ! R46   R(23,24)                1.3442         estimate D2E/DX2                !
 ! R47   R(23,79)                1.0868         estimate D2E/DX2                !
 ! R48   R(24,25)                1.4779         estimate D2E/DX2                !
 ! R49   R(24,80)                1.083          estimate D2E/DX2                !
 ! R50   R(25,26)                1.3391         estimate D2E/DX2                !
 ! R51   R(25,81)                1.0876         estimate D2E/DX2                !
 ! R52   R(26,27)                1.4769         estimate D2E/DX2                !
 ! R53   R(26,82)                1.0876         estimate D2E/DX2                !
 ! R54   R(27,28)                1.3388         estimate D2E/DX2                !
 ! R55   R(27,83)                1.0876         estimate D2E/DX2                !
 ! R56   R(28,29)                1.4768         estimate D2E/DX2                !
 ! R57   R(28,84)                1.0877         estimate D2E/DX2                !
 ! R58   R(29,30)                1.3387         estimate D2E/DX2                !
 ! R59   R(29,85)                1.0875         estimate D2E/DX2                !
 ! R60   R(30,31)                1.4768         estimate D2E/DX2                !
 ! R61   R(30,86)                1.0878         estimate D2E/DX2                !
 ! R62   R(31,32)                1.3388         estimate D2E/DX2                !
 ! R63   R(31,87)                1.0874         estimate D2E/DX2                !
 ! R64   R(32,33)                1.4776         estimate D2E/DX2                !
 ! R65   R(32,88)                1.0879         estimate D2E/DX2                !
 ! R66   R(33,34)                1.3436         estimate D2E/DX2                !
 ! R67   R(33,89)                1.0836         estimate D2E/DX2                !
 ! R68   R(34,35)                1.4842         estimate D2E/DX2                !
 ! R69   R(34,90)                1.087          estimate D2E/DX2                !
 ! R70   R(35,36)                1.3501         estimate D2E/DX2                !
 ! R71   R(35,91)                1.0809         estimate D2E/DX2                !
 ! R72   R(36,37)                1.4908         estimate D2E/DX2                !
 ! R73   R(36,92)                1.0827         estimate D2E/DX2                !
 ! R74   R(37,38)                1.3494         estimate D2E/DX2                !
 ! R75   R(37,93)                1.0826         estimate D2E/DX2                !
 ! R76   R(38,39)                1.4843         estimate D2E/DX2                !
 ! R77   R(38,94)                1.0808         estimate D2E/DX2                !
 ! R78   R(39,40)                1.3495         estimate D2E/DX2                !
 ! R79   R(39,95)                1.0809         estimate D2E/DX2                !
 ! R80   R(40,41)                1.4913         estimate D2E/DX2                !
 ! R81   R(40,96)                1.0828         estimate D2E/DX2                !
 ! R82   R(41,42)                1.3501         estimate D2E/DX2                !
 ! R83   R(41,97)                1.0828         estimate D2E/DX2                !
 ! R84   R(42,43)                1.4838         estimate D2E/DX2                !
 ! R85   R(42,98)                1.0807         estimate D2E/DX2                !
 ! R86   R(43,44)                1.3435         estimate D2E/DX2                !
 ! R87   R(43,99)                1.0872         estimate D2E/DX2                !
 ! R88   R(44,45)                1.4781         estimate D2E/DX2                !
 ! R89   R(44,100)               1.0839         estimate D2E/DX2                !
 ! R90   R(45,46)                1.3388         estimate D2E/DX2                !
 ! R91   R(45,101)               1.0881         estimate D2E/DX2                !
 ! R92   R(46,47)                1.4775         estimate D2E/DX2                !
 ! R93   R(46,102)               1.0875         estimate D2E/DX2                !
 ! R94   R(47,48)                1.3387         estimate D2E/DX2                !
 ! R95   R(47,103)               1.088          estimate D2E/DX2                !
 ! R96   R(48,49)                1.4775         estimate D2E/DX2                !
 ! R97   R(48,104)               1.0876         estimate D2E/DX2                !
 ! R98   R(49,50)                1.3388         estimate D2E/DX2                !
 ! R99   R(49,105)               1.088          estimate D2E/DX2                !
 ! R100  R(50,51)                1.4776         estimate D2E/DX2                !
 ! R101  R(50,106)               1.0876         estimate D2E/DX2                !
 ! R102  R(51,52)                1.339          estimate D2E/DX2                !
 ! R103  R(51,107)               1.0879         estimate D2E/DX2                !
 ! R104  R(52,53)                1.4777         estimate D2E/DX2                !
 ! R105  R(52,108)               1.0876         estimate D2E/DX2                !
 ! R106  R(53,54)                1.3392         estimate D2E/DX2                !
 ! R107  R(53,109)               1.0878         estimate D2E/DX2                !
 ! R108  R(54,55)                1.4773         estimate D2E/DX2                !
 ! R109  R(54,110)               1.0877         estimate D2E/DX2                !
 ! R110  R(55,56)                1.3348         estimate D2E/DX2                !
 ! R111  R(55,111)               1.0868         estimate D2E/DX2                !
 ! R112  R(56,112)               1.086          estimate D2E/DX2                !
 ! R113  R(56,113)               1.0852         estimate D2E/DX2                !
 ! A1    A(2,1,57)             121.1607         estimate D2E/DX2                !
 ! A2    A(2,1,114)            119.9776         estimate D2E/DX2                !
 ! A3    A(57,1,114)           118.8617         estimate D2E/DX2                !
 ! A4    A(1,2,3)              121.0853         estimate D2E/DX2                !
 ! A5    A(1,2,58)             118.9858         estimate D2E/DX2                !
 ! A6    A(3,2,58)             119.9289         estimate D2E/DX2                !
 ! A7    A(2,3,4)              120.9745         estimate D2E/DX2                !
 ! A8    A(2,3,59)             119.2221         estimate D2E/DX2                !
 ! A9    A(4,3,59)             119.8033         estimate D2E/DX2                !
 ! A10   A(3,4,5)              120.8265         estimate D2E/DX2                !
 ! A11   A(3,4,60)             119.837          estimate D2E/DX2                !
 ! A12   A(5,4,60)             119.3364         estimate D2E/DX2                !
 ! A13   A(4,5,6)              121.0798         estimate D2E/DX2                !
 ! A14   A(4,5,61)             119.1877         estimate D2E/DX2                !
 ! A15   A(6,5,61)             119.7323         estimate D2E/DX2                !
 ! A16   A(5,6,7)              120.7168         estimate D2E/DX2                !
 ! A17   A(5,6,62)             119.8944         estimate D2E/DX2                !
 ! A18   A(7,6,62)             119.3884         estimate D2E/DX2                !
 ! A19   A(6,7,8)              121.1805         estimate D2E/DX2                !
 ! A20   A(6,7,63)             119.1284         estimate D2E/DX2                !
 ! A21   A(8,7,63)             119.6905         estimate D2E/DX2                !
 ! A22   A(7,8,9)              120.5995         estimate D2E/DX2                !
 ! A23   A(7,8,64)             119.9445         estimate D2E/DX2                !
 ! A24   A(9,8,64)             119.4551         estimate D2E/DX2                !
 ! A25   A(8,9,10)             121.2831         estimate D2E/DX2                !
 ! A26   A(8,9,65)             119.069          estimate D2E/DX2                !
 ! A27   A(10,9,65)            119.6467         estimate D2E/DX2                !
 ! A28   A(9,10,11)            120.4886         estimate D2E/DX2                !
 ! A29   A(9,10,66)            119.9889         estimate D2E/DX2                !
 ! A30   A(11,10,66)           119.5209         estimate D2E/DX2                !
 ! A31   A(10,11,12)           121.3746         estimate D2E/DX2                !
 ! A32   A(10,11,67)           118.9955         estimate D2E/DX2                !
 ! A33   A(12,11,67)           119.6283         estimate D2E/DX2                !
 ! A34   A(11,12,13)           120.4742         estimate D2E/DX2                !
 ! A35   A(11,12,68)           119.9307         estimate D2E/DX2                !
 ! A36   A(13,12,68)           119.5932         estimate D2E/DX2                !
 ! A37   A(12,13,14)           121.008          estimate D2E/DX2                !
 ! A38   A(12,13,69)           117.7073         estimate D2E/DX2                !
 ! A39   A(14,13,69)           121.2831         estimate D2E/DX2                !
 ! A40   A(13,14,15)           124.9426         estimate D2E/DX2                !
 ! A41   A(13,14,70)           118.69           estimate D2E/DX2                !
 ! A42   A(15,14,70)           116.3661         estimate D2E/DX2                !
 ! A43   A(14,15,16)           124.5733         estimate D2E/DX2                !
 ! A44   A(14,15,71)           115.2188         estimate D2E/DX2                !
 ! A45   A(16,15,71)           120.207          estimate D2E/DX2                !
 ! A46   A(15,16,17)           125.0545         estimate D2E/DX2                !
 ! A47   A(15,16,72)           120.3858         estimate D2E/DX2                !
 ! A48   A(17,16,72)           114.5591         estimate D2E/DX2                !
 ! A49   A(16,17,18)           125.4673         estimate D2E/DX2                !
 ! A50   A(16,17,73)           115.8979         estimate D2E/DX2                !
 ! A51   A(18,17,73)           118.6345         estimate D2E/DX2                !
 ! A52   A(17,18,19)           120.1506         estimate D2E/DX2                !
 ! A53   A(17,18,74)           121.3811         estimate D2E/DX2                !
 ! A54   A(19,18,74)           118.4683         estimate D2E/DX2                !
 ! A55   A(18,19,20)           120.9706         estimate D2E/DX2                !
 ! A56   A(18,19,75)           117.8352         estimate D2E/DX2                !
 ! A57   A(20,19,75)           121.1938         estimate D2E/DX2                !
 ! A58   A(19,20,21)           124.9705         estimate D2E/DX2                !
 ! A59   A(19,20,76)           118.7064         estimate D2E/DX2                !
 ! A60   A(21,20,76)           116.3213         estimate D2E/DX2                !
 ! A61   A(20,21,22)           124.6742         estimate D2E/DX2                !
 ! A62   A(20,21,77)           115.0687         estimate D2E/DX2                !
 ! A63   A(22,21,77)           120.2568         estimate D2E/DX2                !
 ! A64   A(21,22,23)           124.9671         estimate D2E/DX2                !
 ! A65   A(21,22,78)           120.3755         estimate D2E/DX2                !
 ! A66   A(23,22,78)           114.6555         estimate D2E/DX2                !
 ! A67   A(22,23,24)           125.2731         estimate D2E/DX2                !
 ! A68   A(22,23,79)           116.0791         estimate D2E/DX2                !
 ! A69   A(24,23,79)           118.6381         estimate D2E/DX2                !
 ! A70   A(23,24,25)           120.3102         estimate D2E/DX2                !
 ! A71   A(23,24,80)           121.4007         estimate D2E/DX2                !
 ! A72   A(25,24,80)           118.2712         estimate D2E/DX2                !
 ! A73   A(24,25,26)           120.9713         estimate D2E/DX2                !
 ! A74   A(24,25,81)           119.3219         estimate D2E/DX2                !
 ! A75   A(26,25,81)           119.6781         estimate D2E/DX2                !
 ! A76   A(25,26,27)           120.7463         estimate D2E/DX2                !
 ! A77   A(25,26,82)           119.8401         estimate D2E/DX2                !
 ! A78   A(27,26,82)           119.3737         estimate D2E/DX2                !
 ! A79   A(26,27,28)           120.7322         estimate D2E/DX2                !
 ! A80   A(26,27,83)           119.3965         estimate D2E/DX2                !
 ! A81   A(28,27,83)           119.8172         estimate D2E/DX2                !
 ! A82   A(27,28,29)           120.8524         estimate D2E/DX2                !
 ! A83   A(27,28,84)           119.7534         estimate D2E/DX2                !
 ! A84   A(29,28,84)           119.3289         estimate D2E/DX2                !
 ! A85   A(28,29,30)           120.4995         estimate D2E/DX2                !
 ! A86   A(28,29,85)           119.5251         estimate D2E/DX2                !
 ! A87   A(30,29,85)           119.897          estimate D2E/DX2                !
 ! A88   A(29,30,31)           121.0269         estimate D2E/DX2                !
 ! A89   A(29,30,86)           119.6616         estimate D2E/DX2                !
 ! A90   A(31,30,86)           119.2276         estimate D2E/DX2                !
 ! A91   A(30,31,32)           120.255          estimate D2E/DX2                !
 ! A92   A(30,31,87)           119.6497         estimate D2E/DX2                !
 ! A93   A(32,31,87)           120.0053         estimate D2E/DX2                !
 ! A94   A(31,32,33)           121.3037         estimate D2E/DX2                !
 ! A95   A(31,32,88)           119.4923         estimate D2E/DX2                !
 ! A96   A(33,32,88)           119.119          estimate D2E/DX2                !
 ! A97   A(32,33,34)           119.7183         estimate D2E/DX2                !
 ! A98   A(32,33,89)           118.7604         estimate D2E/DX2                !
 ! A99   A(34,33,89)           121.436          estimate D2E/DX2                !
 ! A100  A(33,34,35)           125.3885         estimate D2E/DX2                !
 ! A101  A(33,34,90)           118.6396         estimate D2E/DX2                !
 ! A102  A(35,34,90)           115.9041         estimate D2E/DX2                !
 ! A103  A(34,35,36)           125.2944         estimate D2E/DX2                !
 ! A104  A(34,35,91)           114.1646         estimate D2E/DX2                !
 ! A105  A(36,35,91)           120.5367         estimate D2E/DX2                !
 ! A106  A(35,36,37)           124.3827         estimate D2E/DX2                !
 ! A107  A(35,36,92)           120.0937         estimate D2E/DX2                !
 ! A108  A(37,36,92)           115.5228         estimate D2E/DX2                !
 ! A109  A(36,37,38)           124.0636         estimate D2E/DX2                !
 ! A110  A(36,37,93)           115.7675         estimate D2E/DX2                !
 ! A111  A(38,37,93)           120.1255         estimate D2E/DX2                !
 ! A112  A(37,38,39)           125.5535         estimate D2E/DX2                !
 ! A113  A(37,38,94)           120.3435         estimate D2E/DX2                !
 ! A114  A(39,38,94)           114.0776         estimate D2E/DX2                !
 ! A115  A(38,39,40)           125.6434         estimate D2E/DX2                !
 ! A116  A(38,39,95)           113.9951         estimate D2E/DX2                !
 ! A117  A(40,39,95)           120.356          estimate D2E/DX2                !
 ! A118  A(39,40,41)           124.112          estimate D2E/DX2                !
 ! A119  A(39,40,96)           120.1238         estimate D2E/DX2                !
 ! A120  A(41,40,96)           115.7494         estimate D2E/DX2                !
 ! A121  A(40,41,42)           124.2412         estimate D2E/DX2                !
 ! A122  A(40,41,97)           115.7143         estimate D2E/DX2                !
 ! A123  A(42,41,97)           120.0411         estimate D2E/DX2                !
 ! A124  A(41,42,43)           125.3685         estimate D2E/DX2                !
 ! A125  A(41,42,98)           120.5239         estimate D2E/DX2                !
 ! A126  A(43,42,98)           114.1073         estimate D2E/DX2                !
 ! A127  A(42,43,44)           125.6434         estimate D2E/DX2                !
 ! A128  A(42,43,99)           115.7258         estimate D2E/DX2                !
 ! A129  A(44,43,99)           118.6006         estimate D2E/DX2                !
 ! A130  A(43,44,45)           119.5612         estimate D2E/DX2                !
 ! A131  A(43,44,100)          121.4775         estimate D2E/DX2                !
 ! A132  A(45,44,100)          118.9217         estimate D2E/DX2                !
 ! A133  A(44,45,46)           121.7309         estimate D2E/DX2                !
 ! A134  A(44,45,101)          118.8829         estimate D2E/DX2                !
 ! A135  A(46,45,101)          119.3472         estimate D2E/DX2                !
 ! A136  A(45,46,47)           120.0677         estimate D2E/DX2                !
 ! A137  A(45,46,102)          120.1118         estimate D2E/DX2                !
 ! A138  A(47,46,102)          119.7776         estimate D2E/DX2                !
 ! A139  A(46,47,48)           121.4753         estimate D2E/DX2                !
 ! A140  A(46,47,103)          118.9825         estimate D2E/DX2                !
 ! A141  A(48,47,103)          119.5034         estimate D2E/DX2                !
 ! A142  A(47,48,49)           120.3078         estimate D2E/DX2                !
 ! A143  A(47,48,104)          120.0009         estimate D2E/DX2                !
 ! A144  A(49,48,104)          119.6551         estimate D2E/DX2                !
 ! A145  A(48,49,50)           121.2811         estimate D2E/DX2                !
 ! A146  A(48,49,105)          119.093          estimate D2E/DX2                !
 ! A147  A(50,49,105)          119.5981         estimate D2E/DX2                !
 ! A148  A(49,50,51)           120.5458         estimate D2E/DX2                !
 ! A149  A(49,50,106)          119.9115         estimate D2E/DX2                !
 ! A150  A(51,50,106)          119.5207         estimate D2E/DX2                !
 ! A151  A(50,51,52)           121.1308         estimate D2E/DX2                !
 ! A152  A(50,51,107)          119.177          estimate D2E/DX2                !
 ! A153  A(52,51,107)          119.6784         estimate D2E/DX2                !
 ! A154  A(51,52,53)           120.7387         estimate D2E/DX2                !
 ! A155  A(51,52,108)          119.8425         estimate D2E/DX2                !
 ! A156  A(53,52,108)          119.41           estimate D2E/DX2                !
 ! A157  A(52,53,54)           121.0251         estimate D2E/DX2                !
 ! A158  A(52,53,109)          119.2416         estimate D2E/DX2                !
 ! A159  A(54,53,109)          119.7293         estimate D2E/DX2                !
 ! A160  A(53,54,55)           120.8465         estimate D2E/DX2                !
 ! A161  A(53,54,110)          119.8356         estimate D2E/DX2                !
 ! A162  A(55,54,110)          119.3162         estimate D2E/DX2                !
 ! A163  A(54,55,56)           121.1365         estimate D2E/DX2                !
 ! A164  A(54,55,111)          119.9095         estimate D2E/DX2                !
 ! A165  A(56,55,111)          118.9536         estimate D2E/DX2                !
 ! A166  A(55,56,112)          121.158          estimate D2E/DX2                !
 ! A167  A(55,56,113)          119.9546         estimate D2E/DX2                !
 ! A168  A(112,56,113)         118.8873         estimate D2E/DX2                !
 ! D1    D(57,1,2,3)            -0.022          estimate D2E/DX2                !
 ! D2    D(57,1,2,58)         -179.9858         estimate D2E/DX2                !
 ! D3    D(114,1,2,3)          179.9706         estimate D2E/DX2                !
 ! D4    D(114,1,2,58)           0.0068         estimate D2E/DX2                !
 ! D5    D(1,2,3,4)           -179.9651         estimate D2E/DX2                !
 ! D6    D(1,2,3,59)            -0.0254         estimate D2E/DX2                !
 ! D7    D(58,2,3,4)            -0.0016         estimate D2E/DX2                !
 ! D8    D(58,2,3,59)          179.9381         estimate D2E/DX2                !
 ! D9    D(2,3,4,5)            179.8603         estimate D2E/DX2                !
 ! D10   D(2,3,4,60)            -0.0241         estimate D2E/DX2                !
 ! D11   D(59,3,4,5)            -0.0791         estimate D2E/DX2                !
 ! D12   D(59,3,4,60)         -179.9634         estimate D2E/DX2                !
 ! D13   D(3,4,5,6)           -179.8206         estimate D2E/DX2                !
 ! D14   D(3,4,5,61)             0.0191         estimate D2E/DX2                !
 ! D15   D(60,4,5,6)             0.0643         estimate D2E/DX2                !
 ! D16   D(60,4,5,61)          179.904          estimate D2E/DX2                !
 ! D17   D(4,5,6,7)            179.6946         estimate D2E/DX2                !
 ! D18   D(4,5,6,62)            -0.0756         estimate D2E/DX2                !
 ! D19   D(61,5,6,7)            -0.1442         estimate D2E/DX2                !
 ! D20   D(61,5,6,62)         -179.9144         estimate D2E/DX2                !
 ! D21   D(5,6,7,8)           -179.6102         estimate D2E/DX2                !
 ! D22   D(5,6,7,63)             0.1089         estimate D2E/DX2                !
 ! D23   D(62,6,7,8)             0.1612         estimate D2E/DX2                !
 ! D24   D(62,6,7,63)          179.8802         estimate D2E/DX2                !
 ! D25   D(6,7,8,9)            179.5086         estimate D2E/DX2                !
 ! D26   D(6,7,8,64)            -0.1389         estimate D2E/DX2                !
 ! D27   D(63,7,8,9)            -0.2089         estimate D2E/DX2                !
 ! D28   D(63,7,8,64)         -179.8565         estimate D2E/DX2                !
 ! D29   D(7,8,9,10)          -179.3985         estimate D2E/DX2                !
 ! D30   D(7,8,9,65)             0.2075         estimate D2E/DX2                !
 ! D31   D(64,8,9,10)            0.2508         estimate D2E/DX2                !
 ! D32   D(64,8,9,65)          179.8568         estimate D2E/DX2                !
 ! D33   D(8,9,10,11)          179.3418         estimate D2E/DX2                !
 ! D34   D(8,9,10,66)           -0.2048         estimate D2E/DX2                !
 ! D35   D(65,9,10,11)          -0.262          estimate D2E/DX2                !
 ! D36   D(65,9,10,66)        -179.8086         estimate D2E/DX2                !
 ! D37   D(9,10,11,12)        -179.2592         estimate D2E/DX2                !
 ! D38   D(9,10,11,67)           0.2727         estimate D2E/DX2                !
 ! D39   D(66,10,11,12)          0.2895         estimate D2E/DX2                !
 ! D40   D(66,10,11,67)        179.8215         estimate D2E/DX2                !
 ! D41   D(10,11,12,13)        179.238          estimate D2E/DX2                !
 ! D42   D(10,11,12,68)         -0.2626         estimate D2E/DX2                !
 ! D43   D(67,11,12,13)         -0.291          estimate D2E/DX2                !
 ! D44   D(67,11,12,68)       -179.7917         estimate D2E/DX2                !
 ! D45   D(11,12,13,14)       -179.2794         estimate D2E/DX2                !
 ! D46   D(11,12,13,69)          0.27           estimate D2E/DX2                !
 ! D47   D(68,12,13,14)          0.2229         estimate D2E/DX2                !
 ! D48   D(68,12,13,69)        179.7724         estimate D2E/DX2                !
 ! D49   D(12,13,14,15)        179.2552         estimate D2E/DX2                !
 ! D50   D(12,13,14,70)         -0.3223         estimate D2E/DX2                !
 ! D51   D(69,13,14,15)         -0.278          estimate D2E/DX2                !
 ! D52   D(69,13,14,70)       -179.8555         estimate D2E/DX2                !
 ! D53   D(13,14,15,16)          0.0006         estimate D2E/DX2                !
 ! D54   D(13,14,15,71)       -179.6413         estimate D2E/DX2                !
 ! D55   D(70,14,15,16)        179.5869         estimate D2E/DX2                !
 ! D56   D(70,14,15,71)         -0.055          estimate D2E/DX2                !
 ! D57   D(14,15,16,17)       -179.397          estimate D2E/DX2                !
 ! D58   D(14,15,16,72)          0.3112         estimate D2E/DX2                !
 ! D59   D(71,15,16,17)          0.2281         estimate D2E/DX2                !
 ! D60   D(71,15,16,72)        179.9363         estimate D2E/DX2                !
 ! D61   D(15,16,17,18)          0.0298         estimate D2E/DX2                !
 ! D62   D(15,16,17,73)        179.8384         estimate D2E/DX2                !
 ! D63   D(72,16,17,18)       -179.6934         estimate D2E/DX2                !
 ! D64   D(72,16,17,73)          0.1152         estimate D2E/DX2                !
 ! D65   D(16,17,18,19)        179.7136         estimate D2E/DX2                !
 ! D66   D(16,17,18,74)         -0.229          estimate D2E/DX2                !
 ! D67   D(73,17,18,19)         -0.0903         estimate D2E/DX2                !
 ! D68   D(73,17,18,74)        179.9672         estimate D2E/DX2                !
 ! D69   D(17,18,19,20)        179.4619         estimate D2E/DX2                !
 ! D70   D(17,18,19,75)         -0.2949         estimate D2E/DX2                !
 ! D71   D(74,18,19,20)         -0.5938         estimate D2E/DX2                !
 ! D72   D(74,18,19,75)        179.6493         estimate D2E/DX2                !
 ! D73   D(18,19,20,21)       -179.6729         estimate D2E/DX2                !
 ! D74   D(18,19,20,76)         -0.1855         estimate D2E/DX2                !
 ! D75   D(75,19,20,21)          0.0757         estimate D2E/DX2                !
 ! D76   D(75,19,20,76)        179.5632         estimate D2E/DX2                !
 ! D77   D(19,20,21,22)         -1.7575         estimate D2E/DX2                !
 ! D78   D(19,20,21,77)        178.0357         estimate D2E/DX2                !
 ! D79   D(76,20,21,22)        178.744          estimate D2E/DX2                !
 ! D80   D(76,20,21,77)         -1.4627         estimate D2E/DX2                !
 ! D81   D(20,21,22,23)        179.0012         estimate D2E/DX2                !
 ! D82   D(20,21,22,78)         -0.4756         estimate D2E/DX2                !
 ! D83   D(77,21,22,23)         -0.782          estimate D2E/DX2                !
 ! D84   D(77,21,22,78)        179.7412         estimate D2E/DX2                !
 ! D85   D(21,22,23,24)         -1.0712         estimate D2E/DX2                !
 ! D86   D(21,22,23,79)       -179.9165         estimate D2E/DX2                !
 ! D87   D(78,22,23,24)        178.4322         estimate D2E/DX2                !
 ! D88   D(78,22,23,79)         -0.4131         estimate D2E/DX2                !
 ! D89   D(22,23,24,25)       -178.021          estimate D2E/DX2                !
 ! D90   D(22,23,24,80)          0.4126         estimate D2E/DX2                !
 ! D91   D(79,23,24,25)          0.7973         estimate D2E/DX2                !
 ! D92   D(79,23,24,80)        179.2309         estimate D2E/DX2                !
 ! D93   D(23,24,25,26)        176.4215         estimate D2E/DX2                !
 ! D94   D(23,24,25,81)         -1.6193         estimate D2E/DX2                !
 ! D95   D(80,24,25,26)         -2.0605         estimate D2E/DX2                !
 ! D96   D(80,24,25,81)        179.8988         estimate D2E/DX2                !
 ! D97   D(24,25,26,27)       -176.9834         estimate D2E/DX2                !
 ! D98   D(24,25,26,82)          0.7052         estimate D2E/DX2                !
 ! D99   D(81,25,26,27)          1.0505         estimate D2E/DX2                !
 ! D100  D(81,25,26,82)        178.7391         estimate D2E/DX2                !
 ! D101  D(25,26,27,28)        174.5864         estimate D2E/DX2                !
 ! D102  D(25,26,27,83)         -2.7335         estimate D2E/DX2                !
 ! D103  D(82,26,27,28)         -3.1129         estimate D2E/DX2                !
 ! D104  D(82,26,27,83)        179.5672         estimate D2E/DX2                !
 ! D105  D(26,27,28,29)       -176.0602         estimate D2E/DX2                !
 ! D106  D(26,27,28,84)          0.9798         estimate D2E/DX2                !
 ! D107  D(83,27,28,29)          1.2485         estimate D2E/DX2                !
 ! D108  D(83,27,28,84)        178.2884         estimate D2E/DX2                !
 ! D109  D(27,28,29,30)        173.0739         estimate D2E/DX2                !
 ! D110  D(27,28,29,85)         -3.7041         estimate D2E/DX2                !
 ! D111  D(84,28,29,30)         -3.9785         estimate D2E/DX2                !
 ! D112  D(84,28,29,85)        179.2435         estimate D2E/DX2                !
 ! D113  D(28,29,30,31)       -175.4399         estimate D2E/DX2                !
 ! D114  D(28,29,30,86)          1.2028         estimate D2E/DX2                !
 ! D115  D(85,29,30,31)          1.3261         estimate D2E/DX2                !
 ! D116  D(85,29,30,86)        177.9688         estimate D2E/DX2                !
 ! D117  D(29,30,31,32)        172.1902         estimate D2E/DX2                !
 ! D118  D(29,30,31,87)         -4.3596         estimate D2E/DX2                !
 ! D119  D(86,30,31,32)         -4.4669         estimate D2E/DX2                !
 ! D120  D(86,30,31,87)        178.9833         estimate D2E/DX2                !
 ! D121  D(30,31,32,33)       -175.2978         estimate D2E/DX2                !
 ! D122  D(30,31,32,88)          1.3174         estimate D2E/DX2                !
 ! D123  D(87,31,32,33)          1.2397         estimate D2E/DX2                !
 ! D124  D(87,31,32,88)        177.8549         estimate D2E/DX2                !
 ! D125  D(31,32,33,34)        172.1349         estimate D2E/DX2                !
 ! D126  D(31,32,33,89)         -4.5556         estimate D2E/DX2                !
 ! D127  D(88,32,33,34)         -4.4927         estimate D2E/DX2                !
 ! D128  D(88,32,33,89)        178.8168         estimate D2E/DX2                !
 ! D129  D(32,33,34,35)       -175.6922         estimate D2E/DX2                !
 ! D130  D(32,33,34,90)          1.1837         estimate D2E/DX2                !
 ! D131  D(89,33,34,35)          0.9074         estimate D2E/DX2                !
 ! D132  D(89,33,34,90)        177.7833         estimate D2E/DX2                !
 ! D133  D(33,34,35,36)         -5.812          estimate D2E/DX2                !
 ! D134  D(33,34,35,91)        173.4311         estimate D2E/DX2                !
 ! D135  D(90,34,35,36)        177.2361         estimate D2E/DX2                !
 ! D136  D(90,34,35,91)         -3.5209         estimate D2E/DX2                !
 ! D137  D(34,35,36,37)        177.0717         estimate D2E/DX2                !
 ! D138  D(34,35,36,92)         -2.58           estimate D2E/DX2                !
 ! D139  D(91,35,36,37)         -2.1264         estimate D2E/DX2                !
 ! D140  D(91,35,36,92)        178.2218         estimate D2E/DX2                !
 ! D141  D(35,36,37,38)         -8.2833         estimate D2E/DX2                !
 ! D142  D(35,36,37,93)        174.1167         estimate D2E/DX2                !
 ! D143  D(92,36,37,38)        171.3827         estimate D2E/DX2                !
 ! D144  D(92,36,37,93)         -6.2172         estimate D2E/DX2                !
 ! D145  D(36,37,38,39)       -178.0911         estimate D2E/DX2                !
 ! D146  D(36,37,38,94)         -0.0375         estimate D2E/DX2                !
 ! D147  D(93,37,38,39)         -0.5901         estimate D2E/DX2                !
 ! D148  D(93,37,38,94)        177.4635         estimate D2E/DX2                !
 ! D149  D(37,38,39,40)         -6.0945         estimate D2E/DX2                !
 ! D150  D(37,38,39,95)        174.7609         estimate D2E/DX2                !
 ! D151  D(94,38,39,40)        175.7453         estimate D2E/DX2                !
 ! D152  D(94,38,39,95)         -3.3994         estimate D2E/DX2                !
 ! D153  D(38,39,40,41)       -179.9054         estimate D2E/DX2                !
 ! D154  D(38,39,40,96)         -1.3639         estimate D2E/DX2                !
 ! D155  D(95,39,40,41)         -0.811          estimate D2E/DX2                !
 ! D156  D(95,39,40,96)        177.7305         estimate D2E/DX2                !
 ! D157  D(39,40,41,42)         -8.3993         estimate D2E/DX2                !
 ! D158  D(39,40,41,97)        172.2656         estimate D2E/DX2                !
 ! D159  D(96,40,41,42)        173.0013         estimate D2E/DX2                !
 ! D160  D(96,40,41,97)         -6.3338         estimate D2E/DX2                !
 ! D161  D(40,41,42,43)        178.8366         estimate D2E/DX2                !
 ! D162  D(40,41,42,98)         -1.3814         estimate D2E/DX2                !
 ! D163  D(97,41,42,43)         -1.8554         estimate D2E/DX2                !
 ! D164  D(97,41,42,98)        177.9267         estimate D2E/DX2                !
 ! D165  D(41,42,43,44)         -5.7243         estimate D2E/DX2                !
 ! D166  D(41,42,43,99)        176.3162         estimate D2E/DX2                !
 ! D167  D(98,42,43,44)        174.4815         estimate D2E/DX2                !
 ! D168  D(98,42,43,99)         -3.4781         estimate D2E/DX2                !
 ! D169  D(42,43,44,45)       -177.4387         estimate D2E/DX2                !
 ! D170  D(42,43,44,100)         0.2487         estimate D2E/DX2                !
 ! D171  D(99,43,44,45)          0.4676         estimate D2E/DX2                !
 ! D172  D(99,43,44,100)       178.1551         estimate D2E/DX2                !
 ! D173  D(43,44,45,46)        173.482          estimate D2E/DX2                !
 ! D174  D(43,44,45,101)        -4.231          estimate D2E/DX2                !
 ! D175  D(100,44,45,46)        -4.2647         estimate D2E/DX2                !
 ! D176  D(100,44,45,101)      178.0223         estimate D2E/DX2                !
 ! D177  D(44,45,46,47)       -177.0392         estimate D2E/DX2                !
 ! D178  D(44,45,46,102)         0.5725         estimate D2E/DX2                !
 ! D179  D(101,45,46,47)         0.6635         estimate D2E/DX2                !
 ! D180  D(101,45,46,102)      178.2751         estimate D2E/DX2                !
 ! D181  D(45,46,47,48)        173.5972         estimate D2E/DX2                !
 ! D182  D(45,46,47,103)        -4.1268         estimate D2E/DX2                !
 ! D183  D(102,46,47,48)        -4.0224         estimate D2E/DX2                !
 ! D184  D(102,46,47,103)      178.2536         estimate D2E/DX2                !
 ! D185  D(46,47,48,49)       -177.1244         estimate D2E/DX2                !
 ! D186  D(46,47,48,104)         0.6805         estimate D2E/DX2                !
 ! D187  D(103,47,48,49)         0.588          estimate D2E/DX2                !
 ! D188  D(103,47,48,104)      178.3929         estimate D2E/DX2                !
 ! D189  D(47,48,49,50)        174.4805         estimate D2E/DX2                !
 ! D190  D(47,48,49,105)        -3.5942         estimate D2E/DX2                !
 ! D191  D(104,48,49,50)        -3.332          estimate D2E/DX2                !
 ! D192  D(104,48,49,105)      178.5933         estimate D2E/DX2                !
 ! D193  D(48,49,50,51)       -177.6536         estimate D2E/DX2                !
 ! D194  D(48,49,50,106)         0.6342         estimate D2E/DX2                !
 ! D195  D(105,49,50,51)         0.4115         estimate D2E/DX2                !
 ! D196  D(105,49,50,106)      178.6993         estimate D2E/DX2                !
 ! D197  D(49,50,51,52)        175.9267         estimate D2E/DX2                !
 ! D198  D(49,50,51,107)        -2.718          estimate D2E/DX2                !
 ! D199  D(106,50,51,52)        -2.3678         estimate D2E/DX2                !
 ! D200  D(106,50,51,107)      178.9875         estimate D2E/DX2                !
 ! D201  D(50,51,52,53)       -178.4421         estimate D2E/DX2                !
 ! D202  D(50,51,52,108)         0.4729         estimate D2E/DX2                !
 ! D203  D(107,51,52,53)         0.1959         estimate D2E/DX2                !
 ! D204  D(107,51,52,108)      179.1108         estimate D2E/DX2                !
 ! D205  D(51,52,53,54)        177.5865         estimate D2E/DX2                !
 ! D206  D(51,52,53,109)        -1.686          estimate D2E/DX2                !
 ! D207  D(108,52,53,54)        -1.333          estimate D2E/DX2                !
 ! D208  D(108,52,53,109)      179.3945         estimate D2E/DX2                !
 ! D209  D(52,53,54,55)       -179.2565         estimate D2E/DX2                !
 ! D210  D(52,53,54,110)         0.2562         estimate D2E/DX2                !
 ! D211  D(109,53,54,55)         0.0125         estimate D2E/DX2                !
 ! D212  D(109,53,54,110)      179.5252         estimate D2E/DX2                !
 ! D213  D(53,54,55,56)        179.0618         estimate D2E/DX2                !
 ! D214  D(53,54,55,111)        -0.7119         estimate D2E/DX2                !
 ! D215  D(110,54,55,56)        -0.4534         estimate D2E/DX2                !
 ! D216  D(110,54,55,111)      179.7729         estimate D2E/DX2                !
 ! D217  D(54,55,56,112)         0.0417         estimate D2E/DX2                !
 ! D218  D(54,55,56,113)      -179.8354         estimate D2E/DX2                !
 ! D219  D(111,55,56,112)      179.8175         estimate D2E/DX2                !
 ! D220  D(111,55,56,113)       -0.0596         estimate D2E/DX2                !
 --------------------------------------------------------------------------------
 Trust Radius=3.00D-01 FncErr=1.00D-07 GrdErr=1.00D-06 EigMax=2.50D+02 EigMin=1.00D-04
 Number of steps in this run=    511 maximum allowed number of steps=    684.
 GradGradGradGradGradGradGradGradGradGradGradGradGradGradGradGradGradGrad

 Stoichiometry    C56H58
 Framework group  C1[X(C56H58)]
 Deg. of freedom   336
 Full point group                 C1      NOp   1
 Largest Abelian subgroup         C1      NOp   1
 Largest concise Abelian subgroup C1      NOp   1
                         Standard orientation:                         
 ---------------------------------------------------------------------
 Center     Atomic      Atomic             Coordinates (Angstroms)
 Number     Number       Type             X           Y           Z
 ---------------------------------------------------------------------
      1          6           0      -31.280544    4.243677   -0.550672
      2          6           0      -30.414047    3.380390   -0.015633
      3          6           0      -28.970926    3.460981   -0.319841
      4          6           0      -28.103485    2.593125    0.217739
      5          6           0      -26.661090    2.674844   -0.091204
      6          6           0      -25.789652    1.807430    0.440732
      7          6           0      -24.349922    1.892380    0.121032
      8          6           0      -23.471499    1.025141    0.641574
      9          6           0      -22.036104    1.115281    0.304644
     10          6           0      -21.147673    0.248076    0.807844
     11          6           0      -19.718437    0.345607    0.447698
     12          6           0      -18.817108   -0.521079    0.928913
     13          6           0      -17.394317   -0.415158    0.542073
     14          6           0      -16.482946   -1.288049    1.007339
     15          6           0      -15.034351   -1.272870    0.663521
     16          6           0      -14.452439   -0.377382   -0.161522
     17          6           0      -13.011015   -0.359933   -0.521888
     18          6           0      -12.085707   -1.229827   -0.080012
     19          6           0      -10.679350   -1.106343   -0.521144
     20          6           0       -9.738468   -1.960663   -0.081164
     21          6           0       -8.299961   -1.914617   -0.460398
     22          6           0       -7.761297   -1.027277   -1.323168
     23          6           0       -6.322416   -0.961978   -1.690412
     24          6           0       -5.359161   -1.761376   -1.200434
     25          6           0       -3.952078   -1.571363   -1.610421
     26          6           0       -2.972777   -2.312983   -1.077245
     27          6           0       -1.561490   -2.074421   -1.441218
     28          6           0       -0.575000   -2.741388   -0.829361
     29          6           0        0.840074   -2.443715   -1.129238
     30          6           0        1.819955   -3.013914   -0.417334
     31          6           0        3.233709   -2.649670   -0.640100
     32          6           0        4.186149   -3.109167    0.181020
     33          6           0        5.592742   -2.678280    0.042402
     34          6           0        6.492664   -3.031737    0.975376
     35          6           0        7.910958   -2.595792    1.010293
     36          6           0        8.528620   -1.872863    0.051899
     37          6           0        9.937437   -1.392555    0.136200
     38          6           0       10.703224   -1.486978    1.243293
     39          6           0       12.093616   -0.984816    1.376352
     40          6           0       12.840344   -0.463997    0.380219
     41          6           0       14.237154    0.029240    0.552183
     42          6           0       14.854437    0.161886    1.745524
     43          6           0       16.249634    0.626326    1.943867
     44          6           0       17.136944    0.879029    0.967281
     45          6           0       18.514239    1.283090    1.320073
     46          6           0       19.467656    1.420725    0.390308
     47          6           0       20.848143    1.762626    0.790618
     48          6           0       21.848846    1.783301   -0.098304
     49          6           0       23.230783    2.066697    0.341116
     50          6           0       24.261268    1.985208   -0.509665
     51          6           0       25.642535    2.221693   -0.041038
     52          6           0       26.688546    2.064472   -0.862036
     53          6           0       28.068505    2.270092   -0.375090
     54          6           0       29.121058    2.067962   -1.177971
     55          6           0       30.499531    2.258960   -0.682314
     56          6           0       31.553366    2.041216   -1.472106
     57          1           0      -30.948601    5.028847   -1.223700
     58          1           0      -30.784854    2.608373    0.653211
     59          1           0      -28.612403    4.237721   -0.991664
     60          1           0      -28.461440    1.815905    0.889071
     61          1           0      -26.305941    3.452137   -0.764158
     62          1           0      -26.142049    1.028370    1.112792
     63          1           0      -24.002354    2.672027   -0.553186
     64          1           0      -23.814800    0.242611    1.314248
     65          1           0      -21.699944    1.899005   -0.370674
     66          1           0      -21.478106   -0.539495    1.481015
     67          1           0      -19.397761    1.134913   -0.228655
     68          1           0      -19.132837   -1.314111    1.602723
     69          1           0      -17.114414    0.383312   -0.133050
     70          1           0      -16.810792   -2.074988    1.681283
     71          1           0      -14.443091   -2.053941    1.123383
     72          1           0      -15.040633    0.403583   -0.623357
     73          1           0      -12.701470    0.428501   -1.203009
     74          1           0      -12.344976   -2.032058    0.600098
     75          1           0      -10.432765   -0.304522   -1.205344
     76          1           0      -10.029479   -2.746553    0.610662
     77          1           0       -7.676542   -2.660687    0.014470
     78          1           0       -8.383323   -0.283464   -1.802051
     79          1           0       -6.045148   -0.186970   -2.400134
     80          1           0       -5.583373   -2.539839   -0.481633
     81          1           0       -3.707827   -0.795610   -2.332572
     82          1           0       -3.211878   -3.075554   -0.339572
     83          1           0       -1.322483   -1.316853   -2.184028
     84          1           0       -0.814214   -3.478975   -0.066620
     85          1           0        1.082960   -1.715846   -1.899879
     86          1           0        1.570978   -3.716525    0.374865
     87          1           0        3.491985   -1.960746   -1.440842
     88          1           0        3.913336   -3.770291    1.000753
     89          1           0        5.861739   -2.035420   -0.787392
     90          1           0        6.164859   -3.648718    1.808135
     91          1           0        8.444580   -2.896743    1.900832
     92          1           0        7.995831   -1.599796   -0.850260
     93          1           0       10.324064   -0.909833   -0.752365
     94          1           0       10.306757   -1.931514    2.145148
     95          1           0       12.501453   -1.078914    2.372884
     96          1           0       12.441100   -0.405278   -0.624537
     97          1           0       14.755719    0.298907   -0.359286
     98          1           0       14.332940   -0.073251    2.662381
     99          1           0       16.568695    0.734064    2.977602
    100          1           0       16.877710    0.757930   -0.078217
    101          1           0       18.765020    1.436104    2.367799
    102          1           0       19.237453    1.243292   -0.657623
    103          1           0       21.058171    1.965666    1.838715
    104          1           0       21.652515    1.555862   -1.143535
    105          1           0       23.413602    2.315785    1.384278
    106          1           0       24.086645    1.715826   -1.548812
    107          1           0       25.809398    2.507067    0.995394
    108          1           0       26.525690    1.765107   -1.894902
    109          1           0       28.227774    2.579124    0.655684
    110          1           0       28.964074    1.751463   -2.206663
    111          1           0       30.667415    2.578596    0.342787
    112          1           0       31.427063    1.718237   -2.501258
    113          1           0       32.557812    2.184929   -1.087265
    114          1           0      -32.337106    4.167653   -0.315171
 ---------------------------------------------------------------------
 Rotational constants (GHZ):           0.1457773           0.0020302           0.0020121
 Standard basis: 6-31G(d,p) (6D, 7F)
 There are  1130 symmetry adapted cartesian basis functions of A   symmetry.
 There are  1130 symmetry adapted basis functions of A   symmetry.
  1130 basis functions,  1974 primitive gaussians,  1130 cartesian basis functions
   197 alpha electrons      197 beta electrons
       nuclear repulsion energy      4301.3581104918 Hartrees.
 NAtoms=  114 NActive=  114 NUniq=  114 SFac= 1.00D+00 NAtFMM=   60 NAOKFM=T Big=T
 Integral buffers will be    131072 words long.
 Raffenetti 2 integral format.
 Two-electron integral symmetry is turned on.
 One-electron integrals computed using PRISM.
 NBasis=  1130 RedAO= T EigKep=  7.56D-04  NBF=  1130
 NBsUse=  1130 1.00D-06 EigRej= -1.00D+00 NBFU=  1130
 ExpMin= 1.61D-01 ExpMax= 3.05D+03 ExpMxC= 4.57D+02 IAcc=3 IRadAn=         5 AccDes= 0.00D+00
 Harris functional with IExCor=  402 and IRadAn=       5 diagonalized for initial guess.
 HarFok:  IExCor=  402 AccDes= 0.00D+00 IRadAn=         5 IDoV= 1 UseB2=F ITyADJ=14
 ICtDFT=  3500011 ScaDFX=  1.000000  1.000000  1.000000  1.000000
 FoFCou: FMM=F IPFlag=           0 FMFlag=      100000 FMFlg1=        2001
         NFxFlg=           0 DoJE=T BraDBF=F KetDBF=T FulRan=T
         wScrn=  0.000000 ICntrl=       500 IOpCl=  0 I1Cent=   200000004 NGrid=           0
         NMat0=    1 NMatS0=      1 NMatT0=    0 NMatD0=    1 NMtDS0=    0 NMtDT0=    0
 Petite list used in FoFCou.
 Requested convergence on RMS density matrix=1.00D-08 within 128 cycles.
 Requested convergence on MAX density matrix=1.00D-06.
 Requested convergence on             energy=1.00D-06.
 No special actions if energy rises.
 Integral accuracy reduced to 1.0D-05 until final iterations.
 Initial convergence to 1.0D-05 achieved.  Increase integral accuracy.
 SCF Done:  E(RB3LYP) =  -2168.56842164     A.U. after   13 cycles
            NFock= 13  Conv=0.65D-08     -V/T= 2.0101
 Hyperfine terms turned off by default for NAtoms > 100.

 **********************************************************************

            Population analysis using the SCF Density.

 **********************************************************************

 Orbital symmetries:
       Occupied  (A) (A) (A) (A) (A) (A) (A) (A) (A) (A) (A) (A)
                 (A) (A) (A) (A) (A) (A) (A) (A) (A) (A) (A) (A)
                 (A) (A) (A) (A) (A) (A) (A) (A) (A) (A) (A) (A)
                 (A) (A) (A) (A) (A) (A) (A) (A) (A) (A) (A) (A)
                 (A) (A) (A) (A) (A) (A) (A) (A) (A) (A) (A) (A)
                 (A) (A) (A) (A) (A) (A) (A) (A) (A) (A) (A) (A)
                 (A) (A) (A) (A) (A) (A) (A) (A) (A) (A) (A) (A)
                 (A) (A) (A) (A) (A) (A) (A) (A) (A) (A) (A) (A)
                 (A) (A) (A) (A) (A) (A) (A) (A) (A) (A) (A) (A)
                 (A) (A) (A) (A) (A) (A) (A) (A) (A) (A) (A) (A)
                 (A) (A) (A) (A) (A) (A) (A) (A) (A) (A) (A) (A)
                 (A) (A) (A) (A) (A) (A) (A) (A) (A) (A) (A) (A)
                 (A) (A) (A) (A) (A) (A) (A) (A) (A) (A) (A) (A)
                 (A) (A) (A) (A) (A) (A) (A) (A) (A) (A) (A) (A)
                 (A) (A) (A) (A) (A) (A) (A) (A) (A) (A) (A) (A)
                 (A) (A) (A) (A) (A) (A) (A) (A) (A) (A) (A) (A)
                 (A) (A) (A) (A) (A)
       Virtual   (A) (A) (A) (A) (A) (A) (A) (A) (A) (A) (A) (A)
                 (A) (A) (A) (A) (A) (A) (A) (A) (A) (A) (A) (A)
                 (A) (A) (A) (A) (A) (A) (A) (A) (A) (A) (A) (A)
                 (A) (A) (A) (A) (A) (A) (A) (A) (A) (A) (A) (A)
                 (A) (A) (A) (A) (A) (A) (A) (A) (A) (A) (A) (A)
                 (A) (A) (A) (A) (A) (A) (A) (A) (A) (A) (A) (A)
                 (A) (A) (A) (A) (A) (A) (A) (A) (A) (A) (A) (A)
                 (A) (A) (A) (A) (A) (A) (A) (A) (A) (A) (A) (A)
                 (A) (A) (A) (A) (A) (A) (A) (A) (A) (A) (A) (A)
                 (A) (A) (A) (A) (A) (A) (A) (A) (A) (A) (A) (A)
                 (A) (A) (A) (A) (A) (A) (A) (A) (A) (A) (A) (A)
                 (A) (A) (A) (A) (A) (A) (A) (A) (A) (A) (A) (A)
                 (A) (A) (A) (A) (A) (A) (A) (A) (A) (A) (A) (A)
                 (A) (A) (A) (A) (A) (A) (A) (A) (A) (A) (A) (A)
                 (A) (A) (A) (A) (A) (A) (A) (A) (A) (A) (A) (A)
                 (A) (A) (A) (A) (A) (A) (A) (A) (A) (A) (A) (A)
                 (A) (A) (A) (A) (A) (A) (A) (A) (A) (A) (A) (A)
                 (A) (A) (A) (A) (A) (A) (A) (A) (A) (A) (A) (A)
                 (A) (A) (A) (A) (A) (A) (A) (A) (A) (A) (A) (A)
                 (A) (A) (A) (A) (A) (A) (A) (A) (A) (A) (A) (A)
                 (A) (A) (A) (A) (A) (A) (A) (A) (A) (A) (A) (A)
                 (A) (A) (A) (A) (A) (A) (A) (A) (A) (A) (A) (A)
                 (A) (A) (A) (A) (A) (A) (A) (A) (A) (A) (A) (A)
                 (A) (A) (A) (A) (A) (A) (A) (A) (A) (A) (A) (A)
                 (A) (A) (A) (A) (A) (A) (A) (A) (A) (A) (A) (A)
                 (A) (A) (A) (A) (A) (A) (A) (A) (A) (A) (A) (A)
                 (A) (A) (A) (A) (A) (A) (A) (A) (A) (A) (A) (A)
                 (A) (A) (A) (A) (A) (A) (A) (A) (A) (A) (A) (A)
                 (A) (A) (A) (A) (A) (A) (A) (A) (A) (A) (A) (A)
                 (A) (A) (A) (A) (A) (A) (A) (A) (A) (A) (A) (A)
                 (A) (A) (A) (A) (A) (A) (A) (A) (A) (A) (A) (A)
                 (A) (A) (A) (A) (A) (A) (A) (A) (A) (A) (A) (A)
                 (A) (A) (A) (A) (A) (A) (A) (A) (A) (A) (A) (A)
                 (A) (A) (A) (A) (A) (A) (A) (A) (A) (A) (A) (A)
                 (A) (A) (A) (A) (A) (A) (A) (A) (A) (A) (A) (A)
                 (A) (A) (A) (A) (A) (A) (A) (A) (A) (A) (A) (A)
                 (A) (A) (A) (A) (A) (A) (A) (A) (A) (A) (A) (A)
                 (A) (A) (A) (A) (A) (A) (A) (A) (A) (A) (A) (A)
                 (A) (A) (A) (A) (A) (A) (A) (A) (A) (A) (A) (A)
                 (A) (A) (A) (A) (A) (A) (A) (A) (A) (A) (A) (A)
                 (A) (A) (A) (A) (A) (A) (A) (A) (A) (A) (A) (A)
                 (A) (A) (A) (A) (A) (A) (A) (A) (A) (A) (A) (A)
                 (A) (A) (A) (A) (A) (A) (A) (A) (A) (A) (A) (A)
                 (A) (A) (A) (A) (A) (A) (A) (A) (A) (A) (A) (A)
                 (A) (A) (A) (A) (A) (A) (A) (A) (A) (A) (A) (A)
                 (A) (A) (A) (A) (A) (A) (A) (A) (A) (A) (A) (A)
                 (A) (A) (A) (A) (A) (A) (A) (A) (A) (A) (A) (A)
                 (A) (A) (A) (A) (A) (A) (A) (A) (A) (A) (A) (A)
                 (A) (A) (A) (A) (A) (A) (A) (A) (A) (A) (A) (A)
                 (A) (A) (A) (A) (A) (A) (A) (A) (A) (A) (A) (A)
                 (A) (A) (A) (A) (A) (A) (A) (A) (A) (A) (A) (A)
                 (A) (A) (A) (A) (A) (A) (A) (A) (A) (A) (A) (A)
                 (A) (A) (A) (A) (A) (A) (A) (A) (A) (A) (A) (A)
                 (A) (A) (A) (A) (A) (A) (A) (A) (A) (A) (A) (A)
                 (A) (A) (A) (A) (A) (A) (A) (A) (A) (A) (A) (A)
                 (A) (A) (A) (A) (A) (A) (A) (A) (A) (A) (A) (A)
                 (A) (A) (A) (A) (A) (A) (A) (A) (A) (A) (A) (A)
                 (A) (A) (A) (A) (A) (A) (A) (A) (A) (A) (A) (A)
                 (A) (A) (A) (A) (A) (A) (A) (A) (A) (A) (A) (A)
                 (A) (A) (A) (A) (A) (A) (A) (A) (A) (A) (A) (A)
                 (A) (A) (A) (A) (A) (A) (A) (A) (A) (A) (A) (A)
                 (A) (A) (A) (A) (A) (A) (A) (A) (A) (A) (A) (A)
                 (A) (A) (A) (A) (A) (A) (A) (A) (A) (A) (A) (A)
                 (A) (A) (A) (A) (A) (A) (A) (A) (A) (A) (A) (A)
                 (A) (A) (A) (A) (A) (A) (A) (A) (A) (A) (A) (A)
                 (A) (A) (A) (A) (A) (A) (A) (A) (A) (A) (A) (A)
                 (A) (A) (A) (A) (A) (A) (A) (A) (A) (A) (A) (A)
                 (A) (A) (A) (A) (A) (A) (A) (A) (A) (A) (A) (A)
                 (A) (A) (A) (A) (A) (A) (A) (A) (A) (A) (A) (A)
                 (A) (A) (A) (A) (A) (A) (A) (A) (A) (A) (A) (A)
                 (A) (A) (A) (A) (A) (A) (A) (A) (A) (A) (A) (A)
                 (A) (A) (A) (A) (A) (A) (A) (A) (A) (A) (A) (A)
                 (A) (A) (A) (A) (A) (A) (A) (A) (A) (A) (A) (A)
                 (A) (A) (A) (A) (A) (A) (A) (A) (A) (A) (A) (A)
                 (A) (A) (A) (A) (A) (A) (A) (A) (A) (A) (A) (A)
                 (A) (A) (A) (A) (A) (A) (A) (A) (A) (A) (A) (A)
                 (A) (A) (A) (A) (A) (A) (A) (A) (A) (A) (A) (A)
                 (A) (A) (A) (A) (A) (A) (A) (A) (A)
 The electronic state is 1-A.
 Alpha  occ. eigenvalues --  -10.19363 -10.19344 -10.19322 -10.19314 -10.19255
 Alpha  occ. eigenvalues --  -10.19246 -10.19246 -10.19240 -10.19236 -10.19213
 Alpha  occ. eigenvalues --  -10.19198 -10.19185 -10.19183 -10.19170 -10.19167
 Alpha  occ. eigenvalues --  -10.19167 -10.19165 -10.19163 -10.19157 -10.19154
 Alpha  occ. eigenvalues --  -10.19152 -10.19149 -10.19148 -10.19144 -10.19139
 Alpha  occ. eigenvalues --  -10.19136 -10.19135 -10.19133 -10.19129 -10.19128
 Alpha  occ. eigenvalues --  -10.19123 -10.19121 -10.19117 -10.19116 -10.19114
 Alpha  occ. eigenvalues --  -10.19110 -10.19097 -10.19093 -10.19083 -10.19080
 Alpha  occ. eigenvalues --  -10.19074 -10.19073 -10.19072 -10.19066 -10.19063
 Alpha  occ. eigenvalues --  -10.19055 -10.19048 -10.19037 -10.19028 -10.19020
 Alpha  occ. eigenvalues --  -10.19001 -10.18997 -10.18980 -10.18908 -10.17972
 Alpha  occ. eigenvalues --  -10.17893  -0.82976  -0.82898  -0.82866  -0.82600
 Alpha  occ. eigenvalues --   -0.82407  -0.82196  -0.81915  -0.81607  -0.81188
 Alpha  occ. eigenvalues --   -0.80808  -0.80373  -0.79862  -0.79339  -0.78770
 Alpha  occ. eigenvalues --   -0.78166  -0.77524  -0.76839  -0.76149  -0.75403
 Alpha  occ. eigenvalues --   -0.74566  -0.73867  -0.73030  -0.72125  -0.71346
 Alpha  occ. eigenvalues --   -0.70493  -0.69941  -0.68794  -0.68186  -0.65104
 Alpha  occ. eigenvalues --   -0.64448  -0.62924  -0.62472  -0.61594  -0.61238
 Alpha  occ. eigenvalues --   -0.60024  -0.58829  -0.58434  -0.57713  -0.57108
 Alpha  occ. eigenvalues --   -0.56930  -0.56866  -0.56812  -0.56492  -0.56161
 Alpha  occ. eigenvalues --   -0.56036  -0.55850  -0.55331  -0.55096  -0.55000
 Alpha  occ. eigenvalues --   -0.54983  -0.54616  -0.54473  -0.52711  -0.52285
 Alpha  occ. eigenvalues --   -0.51812  -0.50129  -0.50056  -0.49034  -0.48702
 Alpha  occ. eigenvalues --   -0.48382  -0.47906  -0.47719  -0.47531  -0.47276
 Alpha  occ. eigenvalues --   -0.46811  -0.46530  -0.45986  -0.45769  -0.45361
 Alpha  occ. eigenvalues --   -0.44984  -0.44749  -0.44382  -0.43968  -0.43457
 Alpha  occ. eigenvalues --   -0.43073  -0.43015  -0.42085  -0.41501  -0.41294
 Alpha  occ. eigenvalues --   -0.41117  -0.40738  -0.40569  -0.39913  -0.39671
 Alpha  occ. eigenvalues --   -0.39289  -0.39101  -0.38776  -0.38632  -0.38282
 Alpha  occ. eigenvalues --   -0.38173  -0.37862  -0.37751  -0.37572  -0.37520
 Alpha  occ. eigenvalues --   -0.37281  -0.37055  -0.36825  -0.36561  -0.36351
 Alpha  occ. eigenvalues --   -0.36063  -0.36016  -0.35849  -0.35533  -0.35288
 Alpha  occ. eigenvalues --   -0.35225  -0.35202  -0.35137  -0.35106  -0.34869
 Alpha  occ. eigenvalues --   -0.34792  -0.34657  -0.34463  -0.34368  -0.34290
 Alpha  occ. eigenvalues --   -0.34111  -0.33936  -0.33859  -0.33548  -0.33234
 Alpha  occ. eigenvalues --   -0.33154  -0.33107  -0.33011  -0.32535  -0.31982
 Alpha  occ. eigenvalues --   -0.31321  -0.30656  -0.29929  -0.29149  -0.28323
 Alpha  occ. eigenvalues --   -0.27445  -0.26530  -0.25565  -0.24545  -0.23528
 Alpha  occ. eigenvalues --   -0.22451  -0.21348  -0.20251  -0.19158  -0.18212
 Alpha  occ. eigenvalues --   -0.17249  -0.16606
 Alpha virt. eigenvalues --   -0.08550  -0.07877  -0.06486  -0.05677  -0.04479
 Alpha virt. eigenvalues --   -0.03423  -0.02007  -0.00730   0.00112   0.01526
 Alpha virt. eigenvalues --    0.02678   0.03675   0.04651   0.05543   0.06564
 Alpha virt. eigenvalues --    0.07274   0.07823   0.07916   0.07968   0.08276
 Alpha virt. eigenvalues --    0.08429   0.08474   0.08787   0.08968   0.09096
 Alpha virt. eigenvalues --    0.09440   0.09512   0.09564   0.09666   0.09864
 Alpha virt. eigenvalues --    0.09884   0.10090   0.10508   0.11133   0.11609
 Alpha virt. eigenvalues --    0.11731   0.11984   0.12158   0.12224   0.12375
 Alpha virt. eigenvalues --    0.12590   0.12631   0.12649   0.13013   0.13089
 Alpha virt. eigenvalues --    0.13179   0.13206   0.13644   0.13958   0.14050
 Alpha virt. eigenvalues --    0.14071   0.14123   0.14257   0.14297   0.14409
 Alpha virt. eigenvalues --    0.14570   0.14720   0.14785   0.14949   0.14972
 Alpha virt. eigenvalues --    0.15342   0.15467   0.15473   0.15534   0.15818
 Alpha virt. eigenvalues --    0.16215   0.16403   0.16413   0.16818   0.17569
 Alpha virt. eigenvalues --    0.18230   0.18834   0.19233   0.19734   0.19887
 Alpha virt. eigenvalues --    0.19977   0.20390   0.20622   0.21158   0.21384
 Alpha virt. eigenvalues --    0.22034   0.22496   0.22650   0.22854   0.24822
 Alpha virt. eigenvalues --    0.25835   0.26004   0.26022   0.27226   0.27334
 Alpha virt. eigenvalues --    0.27566   0.28376   0.28539   0.28647   0.29041
 Alpha virt. eigenvalues --    0.29119   0.30165   0.31120   0.31162   0.31426
 Alpha virt. eigenvalues --    0.31816   0.32327   0.32609   0.32739   0.32942
 Alpha virt. eigenvalues --    0.33041   0.33261   0.33795   0.34007   0.35005
 Alpha virt. eigenvalues --    0.35554   0.35821   0.36125   0.36190   0.36209
 Alpha virt. eigenvalues --    0.36511   0.37161   0.37358   0.38112   0.38458
 Alpha virt. eigenvalues --    0.38820   0.39239   0.39556   0.39716   0.40704
 Alpha virt. eigenvalues --    0.41320   0.41539   0.41691   0.41809   0.41852
 Alpha virt. eigenvalues --    0.42035   0.42209   0.42385   0.43384   0.43819
 Alpha virt. eigenvalues --    0.44436   0.45005   0.45661   0.47225   0.47561
 Alpha virt. eigenvalues --    0.48033   0.48922   0.49075   0.50593   0.51392
 Alpha virt. eigenvalues --    0.51435   0.51626   0.51737   0.51917   0.51962
 Alpha virt. eigenvalues --    0.52082   0.52391   0.52425   0.52755   0.53016
 Alpha virt. eigenvalues --    0.53364   0.53498   0.53642   0.53994   0.54196
 Alpha virt. eigenvalues --    0.54508   0.54862   0.55012   0.55137   0.55473
 Alpha virt. eigenvalues --    0.55668   0.56029   0.56192   0.56379   0.56611
 Alpha virt. eigenvalues --    0.56997   0.57268   0.57360   0.57371   0.57442
 Alpha virt. eigenvalues --    0.57542   0.57874   0.58051   0.58183   0.58540
 Alpha virt. eigenvalues --    0.58765   0.58773   0.58788   0.58866   0.58968
 Alpha virt. eigenvalues --    0.59081   0.59177   0.59237   0.59340   0.59363
 Alpha virt. eigenvalues --    0.59390   0.60062   0.60068   0.60271   0.60446
 Alpha virt. eigenvalues --    0.60518   0.60796   0.60897   0.60987   0.61166
 Alpha virt. eigenvalues --    0.61212   0.61883   0.62018   0.62150   0.62293
 Alpha virt. eigenvalues --    0.62430   0.62552   0.62792   0.62984   0.63287
 Alpha virt. eigenvalues --    0.63671   0.63788   0.64247   0.64377   0.64604
 Alpha virt. eigenvalues --    0.64765   0.64997   0.65048   0.65137   0.65189
 Alpha virt. eigenvalues --    0.65256   0.65488   0.65559   0.65586   0.65686
 Alpha virt. eigenvalues --    0.66122   0.66243   0.66464   0.66521   0.66686
 Alpha virt. eigenvalues --    0.66862   0.67210   0.67742   0.67890   0.67939
 Alpha virt. eigenvalues --    0.68138   0.68314   0.68727   0.69388   0.69742
 Alpha virt. eigenvalues --    0.69808   0.70310   0.70729   0.71069   0.71829
 Alpha virt. eigenvalues --    0.72258   0.72698   0.73706   0.74237   0.75050
 Alpha virt. eigenvalues --    0.75227   0.75469   0.75756   0.75978   0.76116
 Alpha virt. eigenvalues --    0.78706   0.78773   0.78795   0.79405   0.79541
 Alpha virt. eigenvalues --    0.79723   0.80344   0.80689   0.81039   0.81536
 Alpha virt. eigenvalues --    0.81725   0.81928   0.82030   0.82407   0.82981
 Alpha virt. eigenvalues --    0.83131   0.83617   0.83848   0.84142   0.84539
 Alpha virt. eigenvalues --    0.84576   0.84652   0.84776   0.84859   0.85099
 Alpha virt. eigenvalues --    0.85287   0.85506   0.85594   0.85769   0.85997
 Alpha virt. eigenvalues --    0.86198   0.86321   0.86493   0.86732   0.86782
 Alpha virt. eigenvalues --    0.87005   0.87104   0.87278   0.87412   0.87478
 Alpha virt. eigenvalues --    0.87645   0.87743   0.87881   0.88295   0.88474
 Alpha virt. eigenvalues --    0.88548   0.88854   0.89155   0.89268   0.89598
 Alpha virt. eigenvalues --    0.89978   0.90809   0.91011   0.91064   0.91309
 Alpha virt. eigenvalues --    0.91488   0.91526   0.91781   0.92006   0.92401
 Alpha virt. eigenvalues --    0.92836   0.92936   0.93051   0.93132   0.93351
 Alpha virt. eigenvalues --    0.93757   0.94256   0.94591   0.95271   0.95719
 Alpha virt. eigenvalues --    0.95949   0.96261   0.96555   0.97327   0.97565
 Alpha virt. eigenvalues --    0.97821   0.98036   0.99242   1.01215   1.02445
 Alpha virt. eigenvalues --    1.02738   1.03044   1.03218   1.03357   1.03420
 Alpha virt. eigenvalues --    1.03496   1.03776   1.04074   1.04424   1.04694
 Alpha virt. eigenvalues --    1.05137   1.05595   1.05844   1.05881   1.05987
 Alpha virt. eigenvalues --    1.06293   1.06761   1.07041   1.07162   1.07382
 Alpha virt. eigenvalues --    1.07807   1.08429   1.08900   1.09244   1.09713
 Alpha virt. eigenvalues --    1.09908   1.09985   1.10362   1.10638   1.10758
 Alpha virt. eigenvalues --    1.10993   1.11491   1.12074   1.13200   1.15498
 Alpha virt. eigenvalues --    1.16518   1.17001   1.17341   1.18228   1.18504
 Alpha virt. eigenvalues --    1.18571   1.18875   1.19083   1.19931   1.20843
 Alpha virt. eigenvalues --    1.20953   1.21787   1.22483   1.23691   1.24358
 Alpha virt. eigenvalues --    1.24467   1.26440   1.26846   1.27703   1.27819
 Alpha virt. eigenvalues --    1.28411   1.28501   1.28788   1.29005   1.29269
 Alpha virt. eigenvalues --    1.29332   1.29715   1.29889   1.30038   1.30091
 Alpha virt. eigenvalues --    1.30370   1.30409   1.30596   1.30712   1.30997
 Alpha virt. eigenvalues --    1.31124   1.31330   1.31383   1.31551   1.31556
 Alpha virt. eigenvalues --    1.31659   1.31808   1.32242   1.32285   1.32413
 Alpha virt. eigenvalues --    1.32625   1.32689   1.32721   1.32888   1.32940
 Alpha virt. eigenvalues --    1.33204   1.33225   1.33429   1.33804   1.34097
 Alpha virt. eigenvalues --    1.34288   1.34590   1.35047   1.35400   1.36439
 Alpha virt. eigenvalues --    1.36747   1.36890   1.37180   1.37556   1.38013
 Alpha virt. eigenvalues --    1.38400   1.38759   1.40102   1.40538   1.41123
 Alpha virt. eigenvalues --    1.41199   1.41854   1.42841   1.43403   1.43429
 Alpha virt. eigenvalues --    1.43996   1.44584   1.44929   1.45376   1.45625
 Alpha virt. eigenvalues --    1.45881   1.46019   1.46474   1.46809   1.47299
 Alpha virt. eigenvalues --    1.47745   1.48138   1.48264   1.48609   1.48713
 Alpha virt. eigenvalues --    1.48906   1.49264   1.49501   1.50106   1.50179
[...]
 .00000071,-0.00000004,0.00000116,-0.00000047,0.00000129,0.00000126,-0.
 00000069,-0.00000109,-0.00000072,0.00000041,0.00000020,-0.00000144,0.0
 0000057,-0.00000021,0.00000100,-0.00000041,0.00000004,-0.00000232,0.00
 000094,-0.00000017,0.00000171,-0.00000071,0.00000186,0.00000165,-0.000
 00093,-0.00000167,-0.00000102,0.00000062,0.00000040,-0.00000194,0.0000
 0077,-0.00000043,0.00000151,-0.00000062,0.00000023,-0.00000225,0.00000
 088,-0.00000024,0.00000170,-0.00000071,0.00000002,-0.00000261,0.000001
 06,-0.00000003,0.00000193,-0.00000086,-0.00000022,-0.00000297,0.000001
 24,0.00000023,0.00000221,-0.00000103,-0.00000046,-0.00000328,0.0000015
 3,0.00000057,0.00000227,-0.00000113,-0.00000115,-0.00000557,0.00000224
 ,0.00000048,0.00000312,-0.00000136,0.00000351,0.00000498,-0.00000259,-
 0.00000258,-0.00000270,0.00000129,-0.00000081,-0.00000663,0.00000334,-
 0.00000015,0.00000418,-0.00000220,0.00000489,0.00000545,-0.00000456,-0
 .00000387,-0.00000309,0.00000238,-0.00000058,-0.00000791,0.00000616,-0
 .00000107,0.00000458,-0.00000359,0.00000390,0.00000356,-0.00000711,-0.
 00000388,-0.00000468,0.00000502,0.00000575,0.00001453,-0.00000009,-0.0
 0000452,-0.00001097,0.00000537,-0.00000827,-0.00001508,-0.00005279,-0.
 00000595,-0.00001288,0.00002050,0.00004732,0.00018466,0.00014977,-0.00
 006989,-0.00007051,0.00000046,-0.00024751,-0.00042870,-0.00104506,-0.0
 0081460,-0.00007404,0.00050093,0.00192544,0.00762302,0.00514089,-0.017
 30534,0.00521393,0.00470315,0.01919488,0.00824027,-0.04267184,0.000000
 03,-0.00000002,0.00000002,0.,0.00000014,-0.00000004,0.,0.00000002,0.00
 000002,-0.00000002,0.00000017,-0.00000006,0.,0.00000004,0.,-0.00000003
 ,0.00000019,-0.00000008,0.,0.00000005,-0.00000001,-0.00000003,0.000000
 22,-0.00000009,0.,0.00000006,-0.00000003,-0.00000004,0.00000025,-0.000
 00010,0.,0.00000008,-0.00000003,-0.00000004,0.00000028,-0.00000010,0.0
 0000001,0.00000010,-0.00000004,-0.00000013,0.00000032,-0.00000011,0.00
 000008,-0.00000010,0.00000004,-0.00000034,-0.00000009,0.00000009,0.000
 00013,0.00000002,-0.00000002,-0.00000009,0.00000029,-0.00000010,0.0000
 0003,0.00000012,-0.00000004,-0.00000018,0.00000040,-0.00000014,0.00000
 009,-0.00000015,0.00000007,-0.00000046,-0.00000011,0.00000012,0.000000
 17,0.00000004,-0.00000002,-0.00000012,0.00000039,-0.00000013,0.0000000
 2,0.00000018,-0.00000005,-0.00000010,0.00000052,-0.00000018,0.,0.00000
 023,-0.00000007,-0.00000010,0.00000061,-0.00000021,0.,0.00000027,-0.00
 000007,-0.00000012,0.00000070,-0.00000025,0.,0.00000031,-0.00000006,-0
 .00000013,0.00000079,-0.00000028,0.00000002,0.00000032,-0.00000014,-0.
 00000040,0.00000094,-0.00000030,0.00000020,-0.00000028,0.00000030,-0.0
 0000104,-0.00000020,0.00000034,0.00000039,0.00000008,-0.00000011,-0.00
 000063,0.00000096,-0.00000031,0.00000026,-0.00000029,0.00000039,-0.000
 00138,-0.00000015,0.00000053,0.00000062,0.00000024,0.00000002,-0.00000
 095,0.00000135,-0.00000047,0.00000032,-0.00000048,0.00000041,-0.000001
 49,-0.00000030,0.00000100,-0.00000020,0.00000008,0.00000126,-0.0000020
 9,-0.00000058,0.00000163,-0.00000093,-0.00000172,-0.00000063,-0.000002
 89,-0.00000031,0.00000281,0.00000310,0.00000946,0.00001435,-0.00000453
 ,-0.00000178,0.00000326,-0.00001061,-0.00003433,-0.00004429,-0.0000031
 2,0.00000517,0.00002168,0.00007572,0.00004870,0.00008646,-0.00033277,-
 0.00013956,-0.00008713,-0.00123849,-0.00382051,-0.00361346,0.01583020,
 -0.00494857,0.00197140,-0.01702351,-0.01177915,0.03489105,-0.27112223,
 0.12269791,-0.01997157,-0.01896459,0.01605350,-0.00363594,-0.00158783,
 -0.00342885,0.00302326,-0.00074744,0.00107491,-0.00031479,-0.00018324,
 -0.00039034,0.00000183,-0.00011867,0.00010338,-0.00003634,0.00001364,-
 0.00005043,0.00005676,-0.00003408,0.00002960,-0.00000670,0.00001597,-0
 .00003595,0.00000434,-0.00001975,0.00001792,-0.00000547,0.00001416,-0.
 00002334,0.00000931,-0.00001489,0.00001395,-0.00000376,0.00001160,-0.0
 0001892,0.00000576,-0.00002306,-0.00001240,0.00000792,0.00002160,0.000
 01418,-0.00000856,-0.00000331,0.00002050,-0.00000817,0.00000284,-0.000
 02213,0.00000885,-0.00000483,0.00000750,-0.00000250,0.00000411,-0.0000
 1184,0.00000434,-0.00001160,-0.00000800,0.00000483,0.00001222,0.000011
 12,-0.00000625,-0.00000053,0.00001194,-0.00000502,-0.00000014,-0.00001
 548,0.00000651,-0.00000110,0.00000560,-0.00000225,0.00000118,-0.000009
 00,0.00000362,-0.00000130,0.00000554,-0.00000214,0.00000118,-0.0000079
 6,0.00000313,-0.00000159,0.00000484,-0.00000181,0.00000139,-0.00000700
 ,0.00000275,-0.00000177,0.00000422,-0.00000165,0.00000158,-0.00000600,
 0.00000241,-0.00000193,0.00000379,-0.00000130,0.00000197,-0.00000509,0
 .00000186,-0.00000531,-0.00000326,0.00000215,0.00000570,0.00000415,-0.
 00000273,-0.00000095,0.00000554,-0.00000274,0.00000067,-0.00000615,0.0
 0000319,-0.00000346,-0.00000241,0.00000230,0.00000413,0.00000373,-0.00
 000340,-0.00000038,0.00000330,-0.00000243,-0.00000015,-0.00000469,0.00
 000363,-0.00000182,-0.00000169,0.00000192,0.00000310,0.00000343,-0.000
 00380,-0.00000140,-0.00000185,0.00000168,0.00000219,0.00000261,-0.0000
 0249,-0.00000157,-0.00000185,0.00000189,0.00000218,0.00000209,-0.00000
 240,-0.00000179,-0.00000149,0.00000169,0.00000241,0.00000171,-0.000002
 06,-0.00000197,-0.00000114,0.00000147,0.00000253,0.00000144,-0.0000019
 1,-0.00000209,-0.00000091,0.00000133,0.00000259,0.00000126,-0.00000173
 ,-0.00000234,-0.00000061,0.00000129,0.00000265,0.00000101,-0.00000150,
 -0.00000234,0.00000064,0.00000016,0.00388014,-0.00282221,0.00094849,0.
 00090988,-0.00045158,-0.00078809,0.00016231,0.00006746,-0.00008262,0.0
 0000525,-0.00005953,0.00004138,0.00001459,0.00001677,-0.00000553,0.000
 00044,-0.00000342,-0.00000780,-0.00000053,0.00001014,-0.00000397,0.000
 00066,0.00000401,0.00000112,-0.00000154,0.00000754,-0.00000262,0.00000
 007,0.00000280,-0.00000137,-0.00000139,0.00000584,-0.00000209,0.000000
 22,0.00000227,-0.00000079,-0.00000136,0.00000412,-0.00000143,0.0000013
 9,0.00000089,-0.00000049,-0.00000431,-0.00000123,0.00000108,0.00000042
 ,-0.00000159,0.00000064,-0.00000159,0.00000365,-0.00000127,0.00000019,
 0.00000136,-0.00000055,-0.00000081,0.00000268,-0.00000098,0.00000096,0
 .00000054,-0.00000032,-0.00000277,-0.00000080,0.00000071,0.00000039,-0
 .00000104,0.00000040,-0.00000104,0.00000265,-0.00000096,0.00000004,0.0
 0000108,-0.00000042,-0.00000037,0.00000232,-0.00000091,-0.00000002,0.0
 0000093,-0.00000038,-0.00000033,0.00000203,-0.00000078,0.,0.00000084,-
 0.00000034,-0.00000030,0.00000173,-0.00000066,0.00000002,0.00000076,-0
 .00000029,-0.00000031,0.00000147,-0.00000056,0.00000007,0.00000061,-0.
 00000029,-0.00000036,0.00000109,-0.00000041,0.00000047,0.00000003,-0.0
 0000007,-0.00000135,-0.00000044,0.00000043,0.00000022,-0.00000039,0.00
 000015,-0.00000056,0.00000086,-0.00000035,0.00000043,-0.00000005,0.000
 00004,-0.00000111,-0.00000029,0.00000042,0.00000019,-0.00000035,0.0000
 0009,-0.00000049,0.00000072,-0.00000035,0.00000045,-0.00000009,0.00000
 012,-0.00000110,-0.00000038,0.00000061,-0.00000016,-0.00000022,0.00000
 018,-0.00000066,-0.00000037,0.00000049,-0.00000017,-0.00000012,0.00000
 019,-0.00000057,-0.00000028,0.00000046,-0.00000014,-0.00000011,0.00000
 015,-0.00000053,-0.00000026,0.00000041,-0.00000016,-0.00000013,0.00000
 012,-0.00000048,-0.00000026,0.00000039,-0.00000014,-0.00000013,0.00000
 011,-0.00000044,-0.00000028,0.00000035,-0.00000011,-0.00000014,0.00000
 006,-0.00000027,-0.00000029,0.00000025,0.,-0.00000017,0.00000007,0.000
 00005,0.00000015,-0.00000013,0.28778445,0.12685573,-0.12576575,0.02261
 344,-0.01430683,0.01017745,-0.00065700,-0.00148282,0.00030307,0.004761
 50,-0.00031052,0.00079910,-0.00019302,-0.00032061,-0.00035657,-0.00040
 156,0.00003887,0.00006017,-0.00005888,-0.00004823,0.00001577,0.0001238
 2,0.00003135,0.00001991,-0.00000833,-0.00002947,-0.00001847,-0.0000159
 3,0.00001713,0.00000793,-0.00000706,-0.00001379,-0.00000341,0.00000827
 ,0.00000982,0.00000495,-0.00000314,-0.00000833,-0.00000410,0.00000138,
 0.00000466,0.00000065,-0.00000104,-0.00000152,0.00000549,-0.00000191,0
 .00000161,-0.00000234,0.00000064,-0.00000331,-0.00000227,0.00000125,0.
 00000230,0.00000169,-0.00000104,-0.00000208,-0.00000153,0.00000084,0.0
 0000091,-0.00000001,-0.00000017,-0.00000001,0.00000191,-0.00000084,0.0
 0000051,-0.00000042,0.00000010,-0.00000111,-0.00000118,0.00000062,0.00
 000084,0.00000076,-0.00000041,-0.00000083,-0.00000078,0.00000040,0.000
 00055,0.00000065,-0.00000039,-0.00000048,-0.00000066,0.00000037,0.0000
 0035,0.00000057,-0.00000032,-0.00000022,-0.00000056,0.00000026,0.00000
 013,0.00000050,-0.00000019,-0.00000005,-0.00000048,0.00000017,-0.00000
 005,0.00000043,-0.00000018,-0.00000001,-0.00000045,0.00000023,-0.00000
 032,0.,0.00000006,0.00000034,0.00000018,-0.00000013,-0.00000007,0.0000
 0005,-0.00000003,0.00000005,-0.00000028,0.00000015,-0.00000024,-0.0000
 0006,0.00000009,0.00000025,0.00000005,-0.00000008,-0.00000007,0.000000
 13,-0.00000009,0.00000007,-0.00000016,0.00000013,-0.00000023,-0.000000
 09,0.00000014,0.00000019,0.,-0.00000003,-0.00000011,0.00000007,0.00000
 002,0.00000021,-0.00000005,0.00000002,-0.00000010,0.00000006,-0.000000
 04,0.00000015,0.00000007,0.,-0.00000001,-0.00000003,-0.00000002,0.0000
 0003,0.00000012,-0.00000003,-0.00000003,-0.00000008,0.00000002,0.00000
 005,0.00000009,0.,-0.00000003,-0.00000009,0.00000002,0.00000003,0.0000
 0006,0.,-0.00000008,-0.00000013,-0.00000003,0.00000019,-0.00000007,0.0
 0000001,-0.00000008,0.00000004,-0.00000003,0.02286709,-0.00870429,0.00
 162811,-0.00014807,0.00012855,-0.00283969,-0.00039503,0.00028263,-0.00
 018077,0.00008601,0.00001341,0.00004252,-0.00000513,0.00001334,0.00000
 535,-0.00000269,-0.00001148,-0.00002500,-0.00000201,0.00000375,-0.0000
 0100,0.00000157,0.00000364,0.00000747,-0.00000111,0.00000209,0.,0.0000
 0011,-0.00000005,-0.00000092,-0.00000054,0.00000114,-0.00000017,0.0000
 0018,0.00000032,0.00000039,-0.00000037,0.00000067,-0.00000007,0.000000
 32,-0.00000001,0.00000002,-0.00000056,0.00000011,0.00000011,0.00000039
 ,0.,0.00000009,-0.00000037,0.00000050,-0.00000009,0.00000008,0.0000000
 8,0.00000004,-0.00000014,0.00000026,-0.00000004,0.00000014,0.,0.000000
 02,-0.00000026,0.00000001,0.00000006,0.00000016,0.,0.00000002,-0.00000
 015,0.00000025,-0.00000006,0.00000002,0.00000003,0.,-0.00000004,0.0000
 0015,-0.00000004,0.,0.00000003,0.,-0.00000004,0.00000011,-0.00000004,-
 0.00000001,0.00000001,0.,-0.00000004,0.00000009,-0.00000004,-0.0000000
 1,0.,0.,-0.00000003,0.00000007,-0.00000002,0.,-0.00000003,0.00000001,-
 0.00000003,0.00000006,-0.00000003,0.00000006,0.00000005,-0.00000003,-0
 .00000003,0.00000008,-0.00000003,0.00000003,-0.00000002,0.,-0.00000006
 ,0.00000007,-0.00000003,0.00000004,0.00000003,-0.00000002,-0.00000003,
 0.00000003,-0.00000002,0.00000003,0.,-0.00000001,-0.00000005,0.0000000
 6,-0.00000003,0.00000002,0.00000002,-0.00000003,-0.00000001,0.00000002
 ,-0.00000003,-0.00000001,-0.00000001,-0.00000001,-0.00000005,-0.000000
 04,0.00000002,0.,-0.00000001,-0.00000001,-0.00000006,-0.00000006,0.,-0
 .00000001,-0.00000001,0.,-0.00000004,-0.00000004,0.,0.,0.,0.00000001,-
 0.00000002,-0.00000002,-0.00000002,0.,0.00000001,0.00000002,0.,0.00000
 002,-0.00000002,0.,0.00000003,0.00000003,-0.00000003,0.00000005,0.,0.0
 0000002,0.00000005,0.,-0.00000014,0.00000005,0.,-0.13283376,0.12302233
 ,-0.02165636,0.02312815,-0.03782555,0.00866283,-0.00441743,0.00489632,
 0.00223452,0.00500279,0.00930145,0.00024639,-0.00036450,0.00034474,-0.
 00002655,-0.00039314,-0.00128352,-0.00001011,-0.00006693,-0.00004496,0
 .00005585,0.00012415,0.00024943,-0.00000739,-0.00000811,0.00001312,0.0
 0000168,-0.00001519,-0.00006090,-0.00000504,-0.00000720,-0.00000083,0.
 00000541,0.00000941,0.00000822,-0.00000211,-0.00000361,0.00000198,0.00
 000153,0.00000260,-0.00000464,0.00000088,0.00000108,-0.00000112,-0.000
 00200,-0.00000385,0.00000218,-0.00000030,-0.00000174,0.00000047,0.0000
 0096,0.00000354,-0.00000192,-0.00000035,-0.00000167,0.00000058,0.00000
 031,0.00000203,-0.00000103,0.00000105,0.00000093,-0.00000070,-0.000001
 53,-0.00000221,0.00000102,-0.00000015,-0.00000137,0.00000049,0.0000004
 5,0.00000237,-0.00000116,-0.00000020,-0.00000105,0.00000040,0.00000017
 ,0.00000141,-0.00000069,-0.00000006,-0.00000100,0.00000035,0.00000004,
 0.00000124,-0.00000057,0.00000005,-0.00000086,0.00000030,-0.00000009,0
 .00000107,-0.00000049,0.00000016,-0.00000074,0.00000026,-0.00000017,0.
 00000090,-0.00000041,0.00000025,-0.00000065,0.00000019,-0.00000023,0.0
 0000078,-0.00000033,0.00000077,0.00000041,-0.00000032,-0.00000082,-0.0
 0000061,0.00000037,0.00000012,-0.00000073,0.00000034,-0.00000009,0.000
 00088,-0.00000049,0.00000051,0.00000032,-0.00000034,-0.00000061,-0.000
 00052,0.00000046,0.00000006,-0.00000047,0.00000032,0.,0.00000066,-0.00
 000053,0.00000030,0.00000022,-0.00000029,-0.00000047,-0.00000047,0.000
 00051,0.00000022,0.00000025,-0.00000025,-0.00000035,-0.00000034,0.0000
 0032,0.00000023,0.00000022,-0.00000026,-0.00000032,-0.00000028,0.00000
 032,0.00000023,0.00000018,-0.00000023,-0.00000033,-0.00000024,0.000000
 27,0.00000025,0.00000014,-0.00000020,-0.00000034,-0.00000020,0.0000002
 5,0.00000026,0.00000011,-0.00000018,-0.00000034,-0.00000016,0.00000021
 ,0.00000028,0.00000007,-0.00000017,-0.00000040,-0.00000009,0.00000017,
 0.00000029,-0.00000014,0.,-0.00945723,0.00481020,0.00153118,-0.0009107
 3,-0.00280216,-0.00567962,0.00010459,-0.00023814,-0.00020082,-0.000017
 57,0.00006057,0.00012239,0.00000336,0.00000265,0.00002350,-0.00000814,
 -0.00002491,-0.00006287,0.00000097,-0.00000250,0.00000156,0.00000209,0
 .00000720,0.00001943,0.00000086,-0.00000104,0.00000213,-0.00000033,-0.
 00000122,-0.00000168,0.00000047,-0.00000093,0.00000094,0.00000007,0.00
 000015,0.00000131,0.00000037,-0.00000060,0.00000064,-0.00000028,-0.000
 00004,0.00000022,0.00000079,0.00000021,0.00000004,-0.00000016,0.000000
 35,0.00000025,0.00000037,-0.00000057,0.00000040,-0.00000003,-0.0000001
 1,0.00000026,0.00000017,-0.00000037,0.00000029,-0.00000016,0.,0.000000
 17,0.00000047,0.00000014,-0.00000002,-0.00000010,0.00000019,0.00000006
 ,0.00000020,-0.00000040,0.00000023,0.,-0.00000011,0.00000013,0.0000000
 7,-0.00000032,0.00000020,0.00000001,-0.00000009,0.00000011,0.00000007,
 -0.00000027,0.00000016,0.00000001,-0.00000008,0.00000009,0.00000006,-0
 .00000023,0.00000013,0.,-0.00000007,0.00000007,0.00000006,-0.00000019,
 0.00000011,0.,-0.00000005,0.00000006,0.00000006,-0.00000014,0.00000009
 ,-0.00000008,-0.00000001,0.00000005,0.00000019,0.00000004,-0.00000003,
 -0.00000004,0.00000007,0.,0.00000010,-0.00000012,0.00000007,-0.0000000
 7,0.,0.00000002,0.00000016,0.00000004,-0.00000004,-0.00000003,0.000000
 06,0.,0.00000008,-0.00000010,0.00000007,-0.00000007,0.00000002,0.,0.00
 000016,0.00000005,-0.00000006,0.00000002,0.00000003,-0.00000001,0.0000
 0011,0.00000007,-0.00000007,0.00000002,0.00000002,-0.00000001,0.000000
 09,0.00000005,-0.00000006,0.00000003,0.00000003,-0.00000001,0.00000008
 ,0.00000004,-0.00000005,0.00000003,0.00000003,0.,0.00000007,0.00000004
 ,-0.00000005,0.00000003,0.00000003,-0.00000001,0.00000006,0.00000003,-
 0.00000003,0.00000004,0.00000003,0.,0.00000006,0.00000003,-0.00000002,
 0.00000002,0.00000003,0.,0.00000004,-0.00000003,0.00000002,0.02077915,
 -0.02479800,0.02864615\\-0.00000057,-0.00000059,0.00000034,-0.00000031
 ,0.00000043,-0.00000008,0.00000105,-0.00000036,0.00000004,-0.00000137,
 0.00000054,0.00000003,0.00000228,-0.00000024,-0.00000014,-0.00000233,0
 .00000031,0.00000026,0.00000272,-0.00000014,-0.00000023,-0.00000284,0.
 00000019,0.00000037,0.00000273,-0.00000016,-0.00000020,-0.00000282,0.0
 0000019,0.00000042,0.00000234,-0.00000030,-0.00000016,-0.00000257,0.00
 000064,0.00000044,0.00000261,-0.00000011,-0.00000030,-0.00000253,0.000
 00016,0.00000021,0.00000201,-0.00000132,0.00000042,-0.00000156,0.00000
 123,-0.00000005,0.00000051,-0.00000090,0.00000013,0.00000008,0.0000008
 1,-0.00000033,0.00000084,-0.00000017,0.00000041,0.00000022,0.00000020,
 -0.00000041,0.00000046,-0.00000025,0.00000037,-0.00000009,-0.00000006,
 0.,-0.00000091,-0.00000034,0.00000033,0.00000155,0.00000044,-0.0000002
 0,-0.00000169,-0.00000035,0.00000060,0.00000178,0.00000060,-0.00000034
 ,-0.00000180,-0.00000037,0.00000043,0.00000165,0.00000054,-0.00000031,
 -0.00000200,-0.00000050,0.00000042,0.00000157,0.00000056,-0.00000039,-
 0.00000233,-0.00000064,0.00000062,0.00000194,0.00000063,-0.00000082,-0
 .00000193,-0.00000031,0.00000073,0.00000182,0.00000099,-0.00000099,-0.
 00000139,0.00000162,-0.00000044,0.00000101,-0.00000179,0.00000099,-0.0
 0000159,0.00000018,-0.00000010,0.00000139,0.00000031,0.00000011,-0.000
 00079,-0.00000014,-0.00000024,0.00000076,-0.00000017,0.00000050,0.0000
 0010,0.00000008,-0.00000049,-0.00000075,0.00000016,0.00000030,0.000001
 38,-0.00000066,0.00000053,-0.00000110,0.00000132,-0.00000053,0.0000014
 4,-0.00000099,0.00000054,-0.00000176,0.00000162,-0.00000053,0.00000202
 ,-0.00000144,0.00000084,-0.00000203,0.00000192,-0.00000067,0.00000219,
 -0.00000147,0.00000082,-0.00000192,0.00000179,-0.00000063,0.00000196,-
 0.00000119,0.00000061,-0.00000156,0.00000135,-0.00000043,0.00000132,-0
 .00000044,0.00000014,-0.00000079,0.00000050,-0.00000002,0.00000053,0.0
 0000005,-0.00000007,0.00000017,-0.00000069,0.00000064,0.00000019,0.000
 00010,-0.00000007,0.00000030,-0.00000029,0.00000011,-0.00000048,0.0000
 0022,-0.00000010,0.00000046,-0.00000045,0.00000012,-0.00000058,0.00000
 029,-0.00000013,0.00000054,-0.00000051,0.00000010,-0.00000061,0.000000
 36,-0.00000018,0.00000057,-0.00000049,0.00000007,-0.00000061,0.0000003
 4,-0.00000019,0.00000053,-0.00000042,0.00000002,-0.00000058,0.00000026
 ,-0.00000016,0.00000044,-0.00000034,-0.00000001,-0.00000082,-0.0000001
 2,-0.00000054,0.00000029,0.00000006,-0.00000017,0.00000007,0.00000055,
 0.00000029,0.00000007,-0.00000031,0.00000046,-0.00000014,-0.00000016,0
 .00000002,0.00000003,-0.00000056,-0.00000062,-0.00000050,0.00000021,0.
 00000002,0.00000007,-0.00000026,-0.00000002,-0.00000017,0.00000019,0.0
 0000040,0.00000022,-0.00000015,-0.00000021,0.00000003,0.00000028,-0.00
 000022,0.00000009,-0.00000099,-0.00000033,-0.00000014,0.00000051,-0.00
 000034,0.00000014,-0.00000081,0.00000015,-0.00000019,0.00000056,-0.000
 00028,0.00000016,-0.00000069,0.00000016,-0.00000018,0.00000051,-0.0000
 0023,0.00000019,-0.00000051,0.00000011,-0.00000018,0.00000035,-0.00000
 017,0.00000014,-0.00000033,0.00000006,-0.00000029,0.00000055,0.0000005
 0,0.00000010,-0.00000024,-0.00000010,-0.00000027,0.00000006,-0.0000002
 3,0.00000030,-0.00000030,-0.00000048,-0.00000093,-0.00000003,-0.000000
 65,0.00000062,-0.00000028,0.00000011,-0.00000079,0.00000024,0.00000004
 ,0.00000115,-0.00000006,0.00000040,-0.00000035,0.00000023,-0.00000059,
 0.00000086,-0.00000042,-0.00000002,-0.00000051,-0.00000003,0.,0.000000
 68,-0.00000017,-0.00000007,-0.00000066,-0.00000009,-0.00000007,0.00000
 059,-0.00000026,-0.00000012,-0.00000074,0.00000002,-0.00000012,0.00000
 057,-0.00000030,-0.00000007,-0.00000071,0.00000008,-0.00000011,0.00000
 056,-0.00000027,-0.00000002,-0.00000066,0.00000012,-0.00000006,0.00000
 053,-0.00000021,0.00000003,-0.00000054,0.00000012,0.00000002,0.0000004
 7,-0.00000010,0.00000006,-0.00000036,0.00000013,0.00000003,-0.00000010
 ,0.00000032,-0.00000009,0.00000002,0.00000018,-0.00000003,0.00000003,0
 .00000006,0.\\\@


            ARSENIC

 FOR SMELTER FUMES HAVE I BEEN NAMED,
    I AM AN EVIL POISONOUS SMOKE...
 BUT WHEN FROM POISON I AM FREED,
    THROUGH ART AND SLEIGHT OF HAND,
 THEN CAN I CURE BOTH MAN AND BEAST,
    FROM DIRE DISEASE OFTTIMES DIRECT THEM;
 BUT PREPARE ME CORRECTLY, AND TAKE GREAT CARE
    THAT YOU FAITHFULLY KEEP WATCHFUL GUARD OVER ME;
 FOR ELSE I AM POISON, AND POISON REMAIN,
    THAT PIERCES THE HEART OF MANY A ONE.

 ATTRIBUTED TO THE PROBABLY MYTHICAL 15TH
 CENTURY MONK, BASILIUS VALENTINUS
 Job cpu time:       0 days  7 hours 34 minutes 19.7 seconds.
 Elapsed time:       0 days  7 hours 34 minutes 24.1 seconds.
 File lengths (MBytes):  RWF=  13465 Int=      0 D2E=      0 Chk=    106 Scr=      1
 Normal termination of Gaussian 16 at Mon Oct 30 20:57:30 2023.
