 Entering Gaussian System, Link 0=g16
 Input=./com/29.com
 Output=./log/29.log
 Initial command:
 /home/shohei/gaussian/g16/l1.exe "/home/shohei/gaussian/scratch/Gau-26662.inp" -scrdir="/home/shohei/gaussian/scratch/"
 Entering Link 1 = /home/shohei/gaussian/g16/l1.exe PID=     26664.
  
 Copyright (c) 1988-2017, Gaussian, Inc.  All Rights Reserved.
  
 This is part of the Gaussian(R) 16 program.  It is based on
 the Gaussian(R) 09 system (copyright 2009, Gaussian, Inc.),
 the Gaussian(R) 03 system (copyright 2003, Gaussian, Inc.),
 the Gaussian(R) 98 system (copyright 1998, Gaussian, Inc.),
 the Gaussian(R) 94 system (copyright 1995, Gaussian, Inc.),
 the Gaussian 92(TM) system (copyright 1992, Gaussian, Inc.),
 the Gaussian 90(TM) system (copyright 1990, Gaussian, Inc.),
 the Gaussian 88(TM) system (copyright 1988, Gaussian, Inc.),
 the Gaussian 86(TM) system (copyright 1986, Carnegie Mellon
 University), and the Gaussian 82(TM) system (copyright 1983,
 Carnegie Mellon University). Gaussian is a federally registered
 trademark of Gaussian, Inc.
  
 This software contains proprietary and confidential information,
 including trade secrets, belonging to Gaussian, Inc.
  
 This software is provided under written license and may be
 used, copied, transmitted, or stored only in accord with that
 written license.
  
 The following legend is applicable only to US Government
 contracts under FAR:
  
                    RESTRICTED RIGHTS LEGEND
  
 Use, reproduction and disclosure by the US Government is
 subject to restrictions as set forth in subparagraphs (a)
 and (c) of the Commercial Computer Software - Restricted
 Rights clause in FAR 52.227-19.
  
 Gaussian, Inc.
 340 Quinnipiac St., Bldg. 40, Wallingford CT 06492
  
  
 ---------------------------------------------------------------
 Warning -- This program may not be used in any manner that
 competes with the business of Gaussian, Inc. or will provide
 assistance to any competitor of Gaussian, Inc.  The licensee
 of this program is prohibited from giving any competitor of
 Gaussian, Inc. access to this program.  By using this program,
 the user acknowledges that Gaussian, Inc. is engaged in the
 business of creating and licensing software in the field of
 computational chemistry and represents and warrants to the
 licensee that it is not a competitor of Gaussian, Inc. and that
 it will not use this program in any manner prohibited above.
 ---------------------------------------------------------------
  

 Cite this work as:
 Gaussian 16, Revision B.01,
 M. J. Frisch, G. W. Trucks, H. B. Schlegel, G. E. Scuseria, 
 M. A. Robb, J. R. Cheeseman, G. Scalmani, V. Barone, 
 G. A. Petersson, H. Nakatsuji, X. Li, M. Caricato, A. V. Marenich, 
 J. Bloino, B. G. Janesko, R. Gomperts, B. Mennucci, H. P. Hratchian, 
 J. V. Ortiz, A. F. Izmaylov, J. L. Sonnenberg, D. Williams-Young, 
 F. Ding, F. Lipparini, F. Egidi, J. Goings, B. Peng, A. Petrone, 
 T. Henderson, D. Ranasinghe, V. G. Zakrzewski, J. Gao, N. Rega, 
 G. Zheng, W. Liang, M. Hada, M. Ehara, K. Toyota, R. Fukuda, 
 J. Hasegawa, M. Ishida, T. Nakajima, Y. Honda, O. Kitao, H. Nakai, 
 T. Vreven, K. Throssell, J. A. Montgomery, Jr., J. E. Peralta, 
 F. Ogliaro, M. J. Bearpark, J. J. Heyd, E. N. Brothers, K. N. Kudin, 
 V. N. Staroverov, T. A. Keith, R. Kobayashi, J. Normand, 
 K. Raghavachari, A. P. Rendell, J. C. Burant, S. S. Iyengar, 
 J. Tomasi, M. Cossi, J. M. Millam, M. Klene, C. Adamo, R. Cammi, 
 J. W. Ochterski, R. L. Martin, K. Morokuma, O. Farkas, 
 J. B. Foresman, and D. J. Fox, Gaussian, Inc., Wallingford CT, 2016.
 
 ******************************************
 Gaussian 16:  EM64L-G16RevB.01 20-Dec-2017
                30-Oct-2023 
 ******************************************
 %chk=./chk/29.chk
 ---------------------------
 # B3LYP/6-31G(d,p) OPT FREQ
 ---------------------------
 1/18=20,19=15,26=3,38=1/1,3;
 2/9=110,12=2,17=6,18=5,40=1/2;
 3/5=1,6=6,7=101,11=2,25=1,30=1,71=1,74=-5/1,2,3;
 4//1;
 5/5=2,38=5/2;
 6/7=2,8=2,9=2,10=2,28=1/1;
 7//1,2,3,16;
 1/18=20,19=15,26=3/3(2);
 2/9=110/2;
 99//99;
 2/9=110/2;
 3/5=1,6=6,7=101,11=2,25=1,30=1,71=1,74=-5/1,2,3;
 4/5=5,16=3,69=1/1;
 5/5=2,38=5/2;
 7//1,2,3,16;
 1/18=20,19=15,26=3/3(-5);
 2/9=110/2;
 6/7=2,8=2,9=2,10=2,19=2,28=1/1;
 99/9=1/99;
 ------
 29poly
 ------
 Symbolic Z-matrix:
 Charge =  0 Multiplicity = 1
 C                    -37.11548   3.13611   0.53954 
 C                    -36.05166   3.80691   0.09184 
 C                    -34.68091   3.31362   0.33538 
 C                    -33.61571   3.9873   -0.11807 
 C                    -32.2455   3.49212   0.12645 
 C                    -31.17835   4.16035  -0.33038 
 C                    -29.81049   3.66113  -0.08205 
 C                    -28.73945   4.32197  -0.54028 
 C                    -27.37532   3.81746  -0.28329 
 C                    -26.29798   4.47071  -0.73736 
 C                    -24.93916   3.96059  -0.46467 
 C                    -23.85295   4.60777  -0.90584 
 C                    -22.50127   4.09253  -0.60896 
 C                    -21.40369   4.73618  -1.02709 
 C                    -20.05957   4.2176   -0.69838 
 C                    -18.95165   4.87022  -1.09115 
 C                    -17.55866   4.44506  -0.78527 
 C                    -17.23185   3.3403   -0.08232 
 C                    -15.84601   2.92343   0.25317 
 C                    -14.72902   3.58924  -0.08749 
 C                    -13.40463   3.08302   0.33088 
 C                    -12.27934   3.74279   0.00546 
 C                    -10.90427   3.32363   0.38789 
 C                    -10.61319   2.23898   1.13653 
 C                    -9.24195   1.81161   1.51658 
 C                    -8.10764   2.43726   1.15942 
 C                    -6.79719   1.89561   1.57214 
 C                    -5.65616   2.46753   1.1689 
 C                    -4.35261   1.87931   1.53302 
 C                    -3.21282   2.37419   1.03663 
 C                    -1.92227   1.72102   1.32898 
 C                    -0.80326   2.10975   0.70723 
 C                     0.46209   1.37864   0.91196 
 C                     1.5301    1.64374   0.15088 
 C                     2.75867   0.83234   0.26234 
 C                     3.74454   0.98173  -0.6371 
 C                     4.97272   0.15119  -0.70078 
 C                     5.33297  -0.77406   0.21411 
 C                     6.52886  -1.65341   0.0949 
 C                     7.27639  -1.76167  -1.02263 
 C                     8.44335  -2.6619   -1.19218 
 C                     9.01142  -3.40041  -0.21635 
 C                     10.18865  -4.28986  -0.42245 
 C                     10.69683  -4.60873  -1.63168 
 C                     11.889   -5.46122  -1.86152 
 C                     12.70702  -5.9278   -0.90384 
 C                     13.90647  -6.70389  -1.27938 
 C                     14.82867  -7.04337  -0.37069 
 C                     16.06129  -7.74148  -0.78735 
 C                     17.06565  -7.94437   0.07369 
 C                     18.32573  -8.5675   -0.37888 
 C                     19.38562  -8.6479    0.43484 
 C                     20.66411  -9.21007  -0.04579 
 C                     21.75546  -9.19871   0.72984 
 C                     23.04436  -9.72056   0.23113 
 C                     24.15044  -9.65486   0.98323 
 C                     25.4433  -10.15749   0.47591 
 C                     26.553   -10.07317   1.21298 
 H                    -37.00271   2.20949   1.09477 
 H                    -36.20541   4.73023  -0.46023 
 H                    -34.53972   2.38916   0.89096 
 H                    -33.75667   4.91124  -0.67438 
 H                    -32.10599   2.56993   0.68624 
 H                    -31.31575   5.08211  -0.89113 
 H                    -29.67583   2.74169   0.48346 
 H                    -28.87076   5.24139  -1.10627 
 H                    -27.2485   2.90054   0.28817 
 H                    -26.42004   5.38843  -1.30812 
 H                    -24.82353   3.04521   0.1117 
 H                    -23.9624   5.52505  -1.47981 
 H                    -22.40071   3.17724  -0.02961 
 H                    -21.49897   5.65435  -1.60214 
 H                    -19.99939   3.30425  -0.12033 
 H                    -19.06133   5.78688  -1.66459 
 H                    -16.78455   5.10068  -1.16157 
 H                    -18.00326   2.68347   0.29522 
 H                    -15.75152   2.00824   0.83206 
 H                    -14.7718   4.50753  -0.66038 
 H                    -13.37235   2.16939   0.91085 
 H                    -12.35916   4.65432  -0.58098 
 H                    -10.11192   3.96249   0.02129 
 H                    -11.40383   1.6012    1.5071 
 H                    -9.17259   0.91124   2.12166 
 H                    -8.12338   3.33184   0.54901 
 H                    -6.76229   0.99971   2.18827 
 H                    -5.68599   3.35091   0.53494 
 H                    -4.32583   1.00218   2.17598 
 H                    -3.23967   3.23157   0.36769 
 H                    -1.89535   0.87463   2.01185 
 H                    -0.83741   2.93039  -0.0061 
 H                     0.5026    0.57243   1.64111 
 H                     1.47174   2.42203  -0.60708 
 H                     2.81189   0.07707   1.03752 
 H                     3.62625   1.72262  -1.42378 
 H                     5.58492   0.3272   -1.5743 
 H                     4.73468  -0.922     1.10399 
 H                     6.75422  -2.26164   0.96175 
 H                     7.02387  -1.19134  -1.90575 
 H                     8.8459   -2.67988  -2.19534 
 H                     8.63366  -3.34682   0.79687 
 H                     10.6326  -4.6954    0.47793 
 H                     10.23448  -4.2387   -2.5361 
 H                     12.12467  -5.67851  -2.90029 
 H                     12.53538  -5.70648   0.14314 
 H                     14.06469  -6.96021  -2.32487 
 H                     14.6964  -6.75976   0.67088 
 H                     16.17084  -8.05075  -1.82463 
 H                     16.97389  -7.6065    1.10343 
 H                     18.40281  -8.92807  -1.40234 
 H                     19.31901  -8.26316   1.45001 
 H                     20.7227  -9.61191  -1.05493 
 H                     21.70184  -8.78014   1.73233 
 H                     23.09439  -10.14946  -0.76723 
 H                     24.10299  -9.21717   1.97787 
 H                     25.50158  -10.60049  -0.51475 
 H                     26.53582  -9.63373   2.20602 
 H                     27.49379  -10.44525   0.82059 
 H                    -38.11448   3.51514   0.35012 
 

 GradGradGradGradGradGradGradGradGradGradGradGradGradGradGradGradGradGrad
 Berny optimization.
 Initialization pass.
                           ----------------------------
                           !    Initial Parameters    !
                           ! (Angstroms and Degrees)  !
 --------------------------                            --------------------------
 ! Name  Definition              Value          Derivative Info.                !
 --------------------------------------------------------------------------------
 ! R1    R(1,2)                  1.335          estimate D2E/DX2                !
 ! R2    R(1,59)                 1.0861         estimate D2E/DX2                !
 ! R3    R(1,118)                1.0852         estimate D2E/DX2                !
 ! R4    R(2,3)                  1.477          estimate D2E/DX2                !
 ! R5    R(2,60)                 1.0867         estimate D2E/DX2                !
 ! R6    R(3,4)                  1.3394         estimate D2E/DX2                !
 ! R7    R(3,61)                 1.0878         estimate D2E/DX2                !
 ! R8    R(4,5)                  1.4773         estimate D2E/DX2                !
 ! R9    R(4,62)                 1.0877         estimate D2E/DX2                !
 ! R10   R(5,6)                  1.3394         estimate D2E/DX2                !
 ! R11   R(5,63)                 1.0878         estimate D2E/DX2                !
 ! R12   R(6,7)                  1.4771         estimate D2E/DX2                !
 ! R13   R(6,64)                 1.0876         estimate D2E/DX2                !
 ! R14   R(7,8)                  1.3393         estimate D2E/DX2                !
 ! R15   R(7,65)                 1.0878         estimate D2E/DX2                !
 ! R16   R(8,9)                  1.477          estimate D2E/DX2                !
 ! R17   R(8,66)                 1.0876         estimate D2E/DX2                !
 ! R18   R(9,10)                 1.3392         estimate D2E/DX2                !
 ! R19   R(9,67)                 1.0878         estimate D2E/DX2                !
 ! R20   R(10,11)                1.4768         estimate D2E/DX2                !
 ! R21   R(10,68)                1.0876         estimate D2E/DX2                !
 ! R22   R(11,12)                1.3392         estimate D2E/DX2                !
 ! R23   R(11,69)                1.0879         estimate D2E/DX2                !
 ! R24   R(12,13)                1.4767         estimate D2E/DX2                !
 ! R25   R(12,70)                1.0876         estimate D2E/DX2                !
 ! R26   R(13,14)                1.3393         estimate D2E/DX2                !
 ! R27   R(13,71)                1.0879         estimate D2E/DX2                !
 ! R28   R(14,15)                1.4777         estimate D2E/DX2                !
 ! R29   R(14,72)                1.0876         estimate D2E/DX2                !
 ! R30   R(15,16)                1.3445         estimate D2E/DX2                !
 ! R31   R(15,73)                1.0826         estimate D2E/DX2                !
 ! R32   R(16,17)                1.4882         estimate D2E/DX2                !
 ! R33   R(16,74)                1.0868         estimate D2E/DX2                !
 ! R34   R(17,18)                1.3496         estimate D2E/DX2                !
 ! R35   R(17,75)                1.082          estimate D2E/DX2                !
 ! R36   R(18,19)                1.4856         estimate D2E/DX2                !
 ! R37   R(18,76)                1.0812         estimate D2E/DX2                !
 ! R38   R(19,20)                1.3443         estimate D2E/DX2                !
 ! R39   R(19,77)                1.087          estimate D2E/DX2                !
 ! R40   R(20,21)                1.4783         estimate D2E/DX2                !
 ! R41   R(20,78)                1.0832         estimate D2E/DX2                !
 ! R42   R(21,22)                1.3444         estimate D2E/DX2                !
 ! R43   R(21,79)                1.0826         estimate D2E/DX2                !
 ! R44   R(22,23)                1.4875         estimate D2E/DX2                !
 ! R45   R(22,80)                1.0868         estimate D2E/DX2                !
 ! R46   R(23,24)                1.3497         estimate D2E/DX2                !
 ! R47   R(23,81)                1.0818         estimate D2E/DX2                !
 ! R48   R(24,25)                1.4857         estimate D2E/DX2                !
 ! R49   R(24,82)                1.0813         estimate D2E/DX2                !
 ! R50   R(25,26)                1.3438         estimate D2E/DX2                !
 ! R51   R(25,83)                1.087          estimate D2E/DX2                !
 ! R52   R(26,27)                1.4768         estimate D2E/DX2                !
 ! R53   R(26,84)                1.0831         estimate D2E/DX2                !
 ! R54   R(27,28)                1.3385         estimate D2E/DX2                !
 ! R55   R(27,85)                1.0879         estimate D2E/DX2                !
 ! R56   R(28,29)                1.4758         estimate D2E/DX2                !
 ! R57   R(28,86)                1.0877         estimate D2E/DX2                !
 ! R58   R(29,30)                1.3381         estimate D2E/DX2                !
 ! R59   R(29,87)                1.0879         estimate D2E/DX2                !
 ! R60   R(30,31)                1.4757         estimate D2E/DX2                !
 ! R61   R(30,88)                1.0878         estimate D2E/DX2                !
 ! R62   R(31,32)                1.3379         estimate D2E/DX2                !
 ! R63   R(31,89)                1.0879         estimate D2E/DX2                !
 ! R64   R(32,33)                1.4757         estimate D2E/DX2                !
 ! R65   R(32,90)                1.0879         estimate D2E/DX2                !
 ! R66   R(33,34)                1.338          estimate D2E/DX2                !
 ! R67   R(33,91)                1.0878         estimate D2E/DX2                !
 ! R68   R(34,35)                1.4765         estimate D2E/DX2                !
 ! R69   R(34,92)                1.088          estimate D2E/DX2                !
 ! R70   R(35,36)                1.3429         estimate D2E/DX2                !
 ! R71   R(35,93)                1.0836         estimate D2E/DX2                !
 ! R72   R(36,37)                1.484          estimate D2E/DX2                !
 ! R73   R(36,94)                1.0871         estimate D2E/DX2                !
 ! R74   R(37,38)                1.3501         estimate D2E/DX2                !
 ! R75   R(37,95)                1.0811         estimate D2E/DX2                !
 ! R76   R(38,39)                1.4892         estimate D2E/DX2                !
 ! R77   R(38,96)                1.0825         estimate D2E/DX2                !
 ! R78   R(39,40)                1.3488         estimate D2E/DX2                !
 ! R79   R(39,97)                1.0827         estimate D2E/DX2                !
 ! R80   R(40,41)                1.4836         estimate D2E/DX2                !
 ! R81   R(40,98)                1.0812         estimate D2E/DX2                !
 ! R82   R(41,42)                1.3492         estimate D2E/DX2                !
 ! R83   R(41,99)                1.0811         estimate D2E/DX2                !
 ! R84   R(42,43)                1.4898         estimate D2E/DX2                !
 ! R85   R(42,100)               1.0827         estimate D2E/DX2                !
 ! R86   R(43,44)                1.3499         estimate D2E/DX2                !
 ! R87   R(43,101)               1.0827         estimate D2E/DX2                !
 ! R88   R(44,45)                1.4835         estimate D2E/DX2                !
 ! R89   R(44,102)               1.081          estimate D2E/DX2                !
 ! R90   R(45,46)                1.3431         estimate D2E/DX2                !
 ! R91   R(45,103)               1.0871         estimate D2E/DX2                !
 ! R92   R(46,47)                1.4772         estimate D2E/DX2                !
 ! R93   R(46,104)               1.0838         estimate D2E/DX2                !
 ! R94   R(47,48)                1.3384         estimate D2E/DX2                !
 ! R95   R(47,105)               1.088          estimate D2E/DX2                !
 ! R96   R(48,49)                1.4766         estimate D2E/DX2                !
 ! R97   R(48,106)               1.0876         estimate D2E/DX2                !
 ! R98   R(49,50)                1.3384         estimate D2E/DX2                !
 ! R99   R(49,107)               1.0879         estimate D2E/DX2                !
 ! R100  R(50,51)                1.4768         estimate D2E/DX2                !
 ! R101  R(50,108)               1.0876         estimate D2E/DX2                !
 ! R102  R(51,52)                1.3386         estimate D2E/DX2                !
 ! R103  R(51,109)               1.0879         estimate D2E/DX2                !
 ! R104  R(52,53)                1.477          estimate D2E/DX2                !
 ! R105  R(52,110)               1.0877         estimate D2E/DX2                !
 ! R106  R(53,54)                1.339          estimate D2E/DX2                !
 ! R107  R(53,111)               1.0878         estimate D2E/DX2                !
 ! R108  R(54,55)                1.4773         estimate D2E/DX2                !
 ! R109  R(54,112)               1.0877         estimate D2E/DX2                !
 ! R110  R(55,56)                1.3392         estimate D2E/DX2                !
 ! R111  R(55,113)               1.0877         estimate D2E/DX2                !
 ! R112  R(56,57)                1.477          estimate D2E/DX2                !
 ! R113  R(56,114)               1.0877         estimate D2E/DX2                !
 ! R114  R(57,58)                1.3348         estimate D2E/DX2                !
 ! R115  R(57,115)               1.0868         estimate D2E/DX2                !
 ! R116  R(58,116)               1.0861         estimate D2E/DX2                !
 ! R117  R(58,117)               1.0851         estimate D2E/DX2                !
 ! A1    A(2,1,59)             121.1582         estimate D2E/DX2                !
 ! A2    A(2,1,118)            119.9718         estimate D2E/DX2                !
 ! A3    A(59,1,118)           118.8699         estimate D2E/DX2                !
 ! A4    A(1,2,3)              121.0938         estimate D2E/DX2                !
 ! A5    A(1,2,60)             118.9842         estimate D2E/DX2                !
 ! A6    A(3,2,60)             119.922          estimate D2E/DX2                !
 ! A7    A(2,3,4)              120.947          estimate D2E/DX2                !
 ! A8    A(2,3,61)             119.2429         estimate D2E/DX2                !
 ! A9    A(4,3,61)             119.8101         estimate D2E/DX2                !
 ! A10   A(3,4,5)              120.8625         estimate D2E/DX2                !
 ! A11   A(3,4,62)             119.8235         estimate D2E/DX2                !
 ! A12   A(5,4,62)             119.314          estimate D2E/DX2                !
 ! A13   A(4,5,6)              121.0166         estimate D2E/DX2                !
 ! A14   A(4,5,63)             119.2289         estimate D2E/DX2                !
 ! A15   A(6,5,63)             119.7546         estimate D2E/DX2                !
 ! A16   A(5,6,7)              120.7865         estimate D2E/DX2                !
 ! A17   A(5,6,64)             119.8676         estimate D2E/DX2                !
 ! A18   A(7,6,64)             119.346          estimate D2E/DX2                !
 ! A19   A(6,7,8)              121.0811         estimate D2E/DX2                !
 ! A20   A(6,7,65)             119.1891         estimate D2E/DX2                !
 ! A21   A(8,7,65)             119.7298         estimate D2E/DX2                !
 ! A22   A(7,8,9)              120.6983         estimate D2E/DX2                !
 ! A23   A(7,8,66)             119.9074         estimate D2E/DX2                !
 ! A24   A(9,8,66)             119.3942         estimate D2E/DX2                !
 ! A25   A(8,9,10)             121.156          estimate D2E/DX2                !
 ! A26   A(8,9,67)             119.1434         estimate D2E/DX2                !
 ! A27   A(10,9,67)            119.7002         estimate D2E/DX2                !
 ! A28   A(9,10,11)            120.6022         estimate D2E/DX2                !
 ! A29   A(9,10,68)            119.9494         estimate D2E/DX2                !
 ! A30   A(11,10,68)           119.4476         estimate D2E/DX2                !
 ! A31   A(10,11,12)           121.2347         estimate D2E/DX2                !
 ! A32   A(10,11,69)           119.0955         estimate D2E/DX2                !
 ! A33   A(12,11,69)           119.6684         estimate D2E/DX2                !
 ! A34   A(11,12,13)           120.5035         estimate D2E/DX2                !
 ! A35   A(11,12,70)           119.9898         estimate D2E/DX2                !
 ! A36   A(13,12,70)           119.5044         estimate D2E/DX2                !
 ! A37   A(12,13,14)           121.311          estimate D2E/DX2                !
 ! A38   A(12,13,71)           119.0274         estimate D2E/DX2                !
 ! A39   A(14,13,71)           119.6583         estimate D2E/DX2                !
 ! A40   A(13,14,15)           120.4856         estimate D2E/DX2                !
 ! A41   A(13,14,72)           119.9336         estimate D2E/DX2                !
 ! A42   A(15,14,72)           119.5762         estimate D2E/DX2                !
 ! A43   A(14,15,16)           120.9451         estimate D2E/DX2                !
 ! A44   A(14,15,73)           117.7377         estimate D2E/DX2                !
 ! A45   A(16,15,73)           121.3119         estimate D2E/DX2                !
 ! A46   A(15,16,17)           124.9322         estimate D2E/DX2                !
 ! A47   A(15,16,74)           118.711          estimate D2E/DX2                !
 ! A48   A(17,16,74)           116.3512         estimate D2E/DX2                !
 ! A49   A(16,17,18)           124.5806         estimate D2E/DX2                !
 ! A50   A(16,17,75)           115.1561         estimate D2E/DX2                !
 ! A51   A(18,17,75)           120.2598         estimate D2E/DX2                !
 ! A52   A(17,18,19)           124.9753         estimate D2E/DX2                !
 ! A53   A(17,18,76)           120.4237         estimate D2E/DX2                !
 ! A54   A(19,18,76)           114.5978         estimate D2E/DX2                !
 ! A55   A(18,19,20)           125.3758         estimate D2E/DX2                !
 ! A56   A(18,19,77)           115.9513         estimate D2E/DX2                !
 ! A57   A(20,19,77)           118.6687         estimate D2E/DX2                !
 ! A58   A(19,20,21)           120.205          estimate D2E/DX2                !
 ! A59   A(19,20,78)           121.4074         estimate D2E/DX2                !
 ! A60   A(21,20,78)           118.3842         estimate D2E/DX2                !
 ! A61   A(20,21,22)           120.8847         estimate D2E/DX2                !
 ! A62   A(20,21,79)           117.8598         estimate D2E/DX2                !
 ! A63   A(22,21,79)           121.2546         estimate D2E/DX2                !
 ! A64   A(21,22,23)           124.9743         estimate D2E/DX2                !
 ! A65   A(21,22,80)           118.7337         estimate D2E/DX2                !
 ! A66   A(23,22,80)           116.292          estimate D2E/DX2                !
 ! A67   A(22,23,24)           124.6394         estimate D2E/DX2                !
 ! A68   A(22,23,81)           115.0571         estimate D2E/DX2                !
 ! A69   A(24,23,81)           120.3033         estimate D2E/DX2                !
 ! A70   A(23,24,25)           124.8968         estimate D2E/DX2                !
 ! A71   A(23,24,82)           120.4242         estimate D2E/DX2                !
 ! A72   A(25,24,82)           114.6786         estimate D2E/DX2                !
 ! A73   A(24,25,26)           125.2516         estimate D2E/DX2                !
 ! A74   A(24,25,83)           116.0748         estimate D2E/DX2                !
 ! A75   A(26,25,83)           118.6688         estimate D2E/DX2                !
 ! A76   A(25,26,27)           120.2646         estimate D2E/DX2                !
 ! A77   A(25,26,84)           121.4723         estimate D2E/DX2                !
 ! A78   A(27,26,84)           118.25           estimate D2E/DX2                !
 ! A79   A(26,27,28)           121.0321         estimate D2E/DX2                !
 ! A80   A(26,27,85)           119.2609         estimate D2E/DX2                !
 ! A81   A(28,27,85)           119.6798         estimate D2E/DX2                !
 ! A82   A(27,28,29)           120.5536         estimate D2E/DX2                !
 ! A83   A(27,28,86)           119.9478         estimate D2E/DX2                !
 ! A84   A(29,28,86)           119.4549         estimate D2E/DX2                !
 ! A85   A(28,29,30)           120.8952         estimate D2E/DX2                !
 ! A86   A(28,29,87)           119.2711         estimate D2E/DX2                !
 ! A87   A(30,29,87)           119.7682         estimate D2E/DX2                !
 ! A88   A(29,30,31)           120.5144         estimate D2E/DX2                !
 ! A89   A(29,30,88)           119.908          estimate D2E/DX2                !
 ! A90   A(31,30,88)           119.491          estimate D2E/DX2                !
 ! A91   A(30,31,32)           120.7178         estimate D2E/DX2                !
 ! A92   A(30,31,89)           119.3657         estimate D2E/DX2                !
 ! A93   A(32,31,89)           119.808          estimate D2E/DX2                !
 ! A94   A(31,32,33)           120.5828         estimate D2E/DX2                !
 ! A95   A(31,32,90)           119.8456         estimate D2E/DX2                !
 ! A96   A(33,32,90)           119.448          estimate D2E/DX2                !
 ! A97   A(32,33,34)           120.4898         estimate D2E/DX2                !
 ! A98   A(32,33,91)           119.4805         estimate D2E/DX2                !
 ! A99   A(34,33,91)           119.8955         estimate D2E/DX2                !
 ! A100  A(33,34,35)           120.8208         estimate D2E/DX2                !
 ! A101  A(33,34,92)           119.6841         estimate D2E/DX2                !
 ! A102  A(35,34,92)           119.3629         estimate D2E/DX2                !
 ! A103  A(34,35,36)           119.9454         estimate D2E/DX2                !
 ! A104  A(34,35,93)           118.5477         estimate D2E/DX2                !
 ! A105  A(36,35,93)           121.3753         estimate D2E/DX2                !
 ! A106  A(35,36,37)           125.0354         estimate D2E/DX2                !
 ! A107  A(35,36,94)           118.7267         estimate D2E/DX2                !
 ! A108  A(37,36,94)           116.1313         estimate D2E/DX2                !
 ! A109  A(36,37,38)           125.1195         estimate D2E/DX2                !
 ! A110  A(36,37,95)           114.3431         estimate D2E/DX2                !
 ! A111  A(38,37,95)           120.5298         estimate D2E/DX2                !
 ! A112  A(37,38,39)           124.3811         estimate D2E/DX2                !
 ! A113  A(37,38,96)           120.2151         estimate D2E/DX2                !
 ! A114  A(39,38,96)           115.4023         estimate D2E/DX2                !
 ! A115  A(38,39,40)           123.9712         estimate D2E/DX2                !
 ! A116  A(38,39,97)           115.7725         estimate D2E/DX2                !
 ! A117  A(40,39,97)           120.1923         estimate D2E/DX2                !
 ! A118  A(39,40,41)           125.4027         estimate D2E/DX2                !
 ! A119  A(39,40,98)           120.3285         estimate D2E/DX2                !
 ! A120  A(41,40,98)           114.2337         estimate D2E/DX2                !
 ! A121  A(40,41,42)           125.4981         estimate D2E/DX2                !
 ! A122  A(40,41,99)           114.1452         estimate D2E/DX2                !
 ! A123  A(42,41,99)           120.348          estimate D2E/DX2                !
 ! A124  A(41,42,43)           124.0178         estimate D2E/DX2                !
 ! A125  A(41,42,100)          120.1896         estimate D2E/DX2                !
 ! A126  A(43,42,100)          115.7678         estimate D2E/DX2                !
 ! A127  A(42,43,44)           124.2245         estimate D2E/DX2                !
 ! A128  A(42,43,101)          115.6325         estimate D2E/DX2                !
 ! A129  A(44,43,101)          120.1401         estimate D2E/DX2                !
 ! A130  A(43,44,45)           125.2437         estimate D2E/DX2                !
 ! A131  A(43,44,102)          120.5027         estimate D2E/DX2                !
 ! A132  A(45,44,102)          114.2536         estimate D2E/DX2                !
 ! A133  A(44,45,46)           125.351          estimate D2E/DX2                !
 ! A134  A(44,45,103)          115.9194         estimate D2E/DX2                !
 ! A135  A(46,45,103)          118.6757         estimate D2E/DX2                !
 ! A136  A(45,46,47)           119.7208         estimate D2E/DX2                !
 ! A137  A(45,46,104)          121.4264         estimate D2E/DX2                !
 ! A138  A(47,46,104)          118.7825         estimate D2E/DX2                !
 ! A139  A(46,47,48)           121.3409         estimate D2E/DX2                !
 ! A140  A(46,47,105)          119.0877         estimate D2E/DX2                !
 ! A141  A(48,47,105)          119.5006         estimate D2E/DX2                !
 ! A142  A(47,48,49)           120.2328         estimate D2E/DX2                !
 ! A143  A(47,48,106)          120.0175         estimate D2E/DX2                !
 ! A144  A(49,48,106)          119.6736         estimate D2E/DX2                !
 ! A145  A(48,49,50)           121.1027         estimate D2E/DX2                !
 ! A146  A(48,49,107)          119.1759         estimate D2E/DX2                !
 ! A147  A(50,49,107)          119.6519         estimate D2E/DX2                !
 ! A148  A(49,50,51)           120.4717         estimate D2E/DX2                !
 ! A149  A(49,50,108)          119.9133         estimate D2E/DX2                !
 ! A150  A(51,50,108)          119.5518         estimate D2E/DX2                !
 ! A151  A(50,51,52)           120.9727         estimate D2E/DX2                !
 ! A152  A(50,51,109)          119.2508         estimate D2E/DX2                !
 ! A153  A(52,51,109)          119.7278         estimate D2E/DX2                !
 ! A154  A(51,52,53)           120.6899         estimate D2E/DX2                !
 ! A155  A(51,52,110)          119.8431         estimate D2E/DX2                !
 ! A156  A(53,52,110)          119.4295         estimate D2E/DX2                !
 ! A157  A(52,53,54)           120.917          estimate D2E/DX2                !
 ! A158  A(52,53,111)          119.2823         estimate D2E/DX2                !
 ! A159  A(54,53,111)          119.7771         estimate D2E/DX2                !
 ! A160  A(53,54,55)           120.8373         estimate D2E/DX2                !
 ! A161  A(53,54,112)          119.8009         estimate D2E/DX2                !
 ! A162  A(55,54,112)          119.3471         estimate D2E/DX2                !
 ! A163  A(54,55,56)           120.9111         estimate D2E/DX2                !
 ! A164  A(54,55,113)          119.2922         estimate D2E/DX2                !
 ! A165  A(56,55,113)          119.79           estimate D2E/DX2                !
 ! A166  A(55,56,57)           120.8889         estimate D2E/DX2                !
 ! A167  A(55,56,114)          119.819          estimate D2E/DX2                !
 ! A168  A(57,56,114)          119.2892         estimate D2E/DX2                !
 ! A169  A(56,57,58)           121.0996         estimate D2E/DX2                !
 ! A170  A(56,57,115)          119.9189         estimate D2E/DX2                !
 ! A171  A(58,57,115)          118.9809         estimate D2E/DX2                !
 ! A172  A(57,58,116)          121.1514         estimate D2E/DX2                !
 ! A173  A(57,58,117)          119.9615         estimate D2E/DX2                !
 ! A174  A(116,58,117)         118.8869         estimate D2E/DX2                !
 ! D1    D(59,1,2,3)            -0.0121         estimate D2E/DX2                !
 ! D2    D(59,1,2,60)          179.9754         estimate D2E/DX2                !
 ! D3    D(118,1,2,3)         -179.9928         estimate D2E/DX2                !
 ! D4    D(118,1,2,60)          -0.0053         estimate D2E/DX2                !
 ! D5    D(1,2,3,4)            179.8309         estimate D2E/DX2                !
 ! D6    D(1,2,3,61)            -0.1317         estimate D2E/DX2                !
 ! D7    D(60,2,3,4)            -0.1565         estimate D2E/DX2                !
 ! D8    D(60,2,3,61)          179.8809         estimate D2E/DX2                !
 ! D9    D(2,3,4,5)           -179.9929         estimate D2E/DX2                !
 ! D10   D(2,3,4,62)            -0.0162         estimate D2E/DX2                !
 ! D11   D(61,3,4,5)            -0.0304         estimate D2E/DX2                !
 ! D12   D(61,3,4,62)          179.9462         estimate D2E/DX2                !
 ! D13   D(3,4,5,6)            179.7182         estimate D2E/DX2                !
 ! D14   D(3,4,5,63)            -0.2544         estimate D2E/DX2                !
 ! D15   D(62,4,5,6)            -0.2586         estimate D2E/DX2                !
 ! D16   D(62,4,5,63)          179.7688         estimate D2E/DX2                !
 ! D17   D(4,5,6,7)            179.9528         estimate D2E/DX2                !
 ! D18   D(4,5,6,64)            -0.0311         estimate D2E/DX2                !
 ! D19   D(63,5,6,7)            -0.0748         estimate D2E/DX2                !
 ! D20   D(63,5,6,64)          179.9413         estimate D2E/DX2                !
 ! D21   D(5,6,7,8)            179.7546         estimate D2E/DX2                !
 ! D22   D(5,6,7,65)            -0.2955         estimate D2E/DX2                !
 ! D23   D(64,6,7,8)            -0.2614         estimate D2E/DX2                !
 ! D24   D(64,6,7,65)          179.6885         estimate D2E/DX2                !
 ! D25   D(6,7,8,9)            179.8011         estimate D2E/DX2                !
 ! D26   D(6,7,8,66)            -0.0686         estimate D2E/DX2                !
 ! D27   D(65,7,8,9)            -0.1485         estimate D2E/DX2                !
 ! D28   D(65,7,8,66)          179.9818         estimate D2E/DX2                !
 ! D29   D(7,8,9,10)           179.9872         estimate D2E/DX2                !
 ! D30   D(7,8,9,67)            -0.2202         estimate D2E/DX2                !
 ! D31   D(66,8,9,10)           -0.1425         estimate D2E/DX2                !
 ! D32   D(66,8,9,67)          179.6501         estimate D2E/DX2                !
 ! D33   D(8,9,10,11)          179.5424         estimate D2E/DX2                !
 ! D34   D(8,9,10,68)           -0.1372         estimate D2E/DX2                !
 ! D35   D(67,9,10,11)          -0.2491         estimate D2E/DX2                !
 ! D36   D(67,9,10,68)        -179.9286         estimate D2E/DX2                !
 ! D37   D(9,10,11,12)        -179.6042         estimate D2E/DX2                !
 ! D38   D(9,10,11,69)          -0.0306         estimate D2E/DX2                !
 ! D39   D(68,10,11,12)          0.0769         estimate D2E/DX2                !
 ! D40   D(68,10,11,69)        179.6505         estimate D2E/DX2                !
 ! D41   D(10,11,12,13)        179.2078         estimate D2E/DX2                !
 ! D42   D(10,11,12,70)         -0.2343         estimate D2E/DX2                !
 ! D43   D(69,11,12,13)         -0.3634         estimate D2E/DX2                !
 ! D44   D(69,11,12,70)       -179.8055         estimate D2E/DX2                !
 ! D45   D(11,12,13,14)       -179.1122         estimate D2E/DX2                !
 ! D46   D(11,12,13,71)          0.2258         estimate D2E/DX2                !
 ! D47   D(70,12,13,14)          0.3327         estimate D2E/DX2                !
 ! D48   D(70,12,13,71)        179.6706         estimate D2E/DX2                !
 ! D49   D(12,13,14,15)        178.8672         estimate D2E/DX2                !
 ! D50   D(12,13,14,72)         -0.3491         estimate D2E/DX2                !
 ! D51   D(71,13,14,15)         -0.4666         estimate D2E/DX2                !
 ! D52   D(71,13,14,72)       -179.683          estimate D2E/DX2                !
 ! D53   D(13,14,15,16)       -178.6973         estimate D2E/DX2                !
 ! D54   D(13,14,15,73)          0.4708         estimate D2E/DX2                !
 ! D55   D(72,14,15,16)          0.5219         estimate D2E/DX2                !
 ! D56   D(72,14,15,73)        179.69           estimate D2E/DX2                !
 ! D57   D(14,15,16,17)        178.6314         estimate D2E/DX2                !
 ! D58   D(14,15,16,74)         -0.4779         estimate D2E/DX2                !
 ! D59   D(73,15,16,17)         -0.5068         estimate D2E/DX2                !
 ! D60   D(73,15,16,74)       -179.616          estimate D2E/DX2                !
 ! D61   D(15,16,17,18)          0.6075         estimate D2E/DX2                !
 ! D62   D(15,16,17,75)       -178.7062         estimate D2E/DX2                !
 ! D63   D(74,16,17,18)        179.7357         estimate D2E/DX2                !
 ! D64   D(74,16,17,75)          0.422          estimate D2E/DX2                !
 ! D65   D(16,17,18,19)       -178.6045         estimate D2E/DX2                !
 ! D66   D(16,17,18,76)          0.6999         estimate D2E/DX2                !
 ! D67   D(75,17,18,19)          0.6763         estimate D2E/DX2                !
 ! D68   D(75,17,18,76)        179.9807         estimate D2E/DX2                !
 ! D69   D(17,18,19,20)          0.4391         estimate D2E/DX2                !
 ! D70   D(17,18,19,77)        179.6828         estimate D2E/DX2                !
 ! D71   D(76,18,19,20)       -178.9013         estimate D2E/DX2                !
 ! D72   D(76,18,19,77)          0.3424         estimate D2E/DX2                !
 ! D73   D(18,19,20,21)        178.7769         estimate D2E/DX2                !
 ! D74   D(18,19,20,78)         -0.5426         estimate D2E/DX2                !
 ! D75   D(77,19,20,21)         -0.448          estimate D2E/DX2                !
 ! D76   D(77,19,20,78)       -179.7675         estimate D2E/DX2                !
 ! D77   D(19,20,21,22)       -179.5479         estimate D2E/DX2                !
 ! D78   D(19,20,21,79)          0.1122         estimate D2E/DX2                !
 ! D79   D(78,20,21,22)         -0.2081         estimate D2E/DX2                !
 ! D80   D(78,20,21,79)        179.452          estimate D2E/DX2                !
 ! D81   D(20,21,22,23)        179.4213         estimate D2E/DX2                !
 ! D82   D(20,21,22,80)         -0.5512         estimate D2E/DX2                !
 ! D83   D(79,21,22,23)         -0.2271         estimate D2E/DX2                !
 ! D84   D(79,21,22,80)        179.8004         estimate D2E/DX2                !
 ! D85   D(21,22,23,24)         -1.4622         estimate D2E/DX2                !
 ! D86   D(21,22,23,81)        178.6955         estimate D2E/DX2                !
 ! D87   D(80,22,23,24)        178.5109         estimate D2E/DX2                !
 ! D88   D(80,22,23,81)         -1.3314         estimate D2E/DX2                !
 ! D89   D(22,23,24,25)        179.7034         estimate D2E/DX2                !
 ! D90   D(22,23,24,82)         -0.0665         estimate D2E/DX2                !
 ! D91   D(81,23,24,25)         -0.4621         estimate D2E/DX2                !
 ! D92   D(81,23,24,82)        179.768          estimate D2E/DX2                !
 ! D93   D(23,24,25,26)         -0.584          estimate D2E/DX2                !
 ! D94   D(23,24,25,83)       -179.7715         estimate D2E/DX2                !
 ! D95   D(82,24,25,26)        179.1977         estimate D2E/DX2                !
 ! D96   D(82,24,25,83)          0.0102         estimate D2E/DX2                !
 ! D97   D(24,25,26,27)       -178.452          estimate D2E/DX2                !
 ! D98   D(24,25,26,84)          0.2104         estimate D2E/DX2                !
 ! D99   D(83,25,26,27)          0.7163         estimate D2E/DX2                !
 ! D100  D(83,25,26,84)        179.3787         estimate D2E/DX2                !
 ! D101  D(25,26,27,28)        176.593          estimate D2E/DX2                !
 ! D102  D(25,26,27,85)         -1.5039         estimate D2E/DX2                !
 ! D103  D(84,26,27,28)         -2.1119         estimate D2E/DX2                !
 ! D104  D(84,26,27,85)        179.7912         estimate D2E/DX2                !
 ! D105  D(26,27,28,29)       -176.9941         estimate D2E/DX2                !
 ! D106  D(26,27,28,86)          0.5883         estimate D2E/DX2                !
 ! D107  D(85,27,28,29)          1.0949         estimate D2E/DX2                !
 ! D108  D(85,27,28,86)        178.6773         estimate D2E/DX2                !
 ! D109  D(27,28,29,30)        173.9899         estimate D2E/DX2                !
 ! D110  D(27,28,29,87)         -3.0594         estimate D2E/DX2                !
 ! D111  D(86,28,29,30)         -3.6044         estimate D2E/DX2                !
 ! D112  D(86,28,29,87)        179.3464         estimate D2E/DX2                !
 ! D113  D(28,29,30,31)       -175.6104         estimate D2E/DX2                !
 ! D114  D(28,29,30,88)          0.989          estimate D2E/DX2                !
 ! D115  D(87,29,30,31)          1.4244         estimate D2E/DX2                !
 ! D116  D(87,29,30,88)        178.0237         estimate D2E/DX2                !
 ! D117  D(29,30,31,32)        171.7576         estimate D2E/DX2                !
 ! D118  D(29,30,31,89)         -4.4495         estimate D2E/DX2                !
 ! D119  D(88,30,31,32)         -4.8559         estimate D2E/DX2                !
 ! D120  D(88,30,31,89)        178.9371         estimate D2E/DX2                !
 ! D121  D(30,31,32,33)       -174.5874         estimate D2E/DX2                !
 ! D122  D(30,31,32,90)          1.3489         estimate D2E/DX2                !
 ! D123  D(89,31,32,33)          1.603          estimate D2E/DX2                !
 ! D124  D(89,31,32,90)        177.5393         estimate D2E/DX2                !
 ! D125  D(31,32,33,34)        170.3866         estimate D2E/DX2                !
 ! D126  D(31,32,33,91)         -5.3983         estimate D2E/DX2                !
 ! D127  D(90,32,33,34)         -5.5657         estimate D2E/DX2                !
 ! D128  D(90,32,33,91)        178.6494         estimate D2E/DX2                !
 ! D129  D(32,33,34,35)       -174.2146         estimate D2E/DX2                !
 ! D130  D(32,33,34,92)          1.5788         estimate D2E/DX2                !
 ! D131  D(91,33,34,35)          1.5528         estimate D2E/DX2                !
 ! D132  D(91,33,34,92)        177.3462         estimate D2E/DX2                !
 ! D133  D(33,34,35,36)        170.2232         estimate D2E/DX2                !
 ! D134  D(33,34,35,93)         -5.6652         estimate D2E/DX2                !
 ! D135  D(92,34,35,36)         -5.5836         estimate D2E/DX2                !
 ! D136  D(92,34,35,93)        178.528          estimate D2E/DX2                !
 ! D137  D(34,35,36,37)       -174.6189         estimate D2E/DX2                !
 ! D138  D(34,35,36,94)          1.4723         estimate D2E/DX2                !
 ! D139  D(93,35,36,37)          1.1506         estimate D2E/DX2                !
 ! D140  D(93,35,36,94)        177.2418         estimate D2E/DX2                !
 ! D141  D(35,36,37,38)         -7.1893         estimate D2E/DX2                !
 ! D142  D(35,36,37,95)        171.8091         estimate D2E/DX2                !
 ! D143  D(94,36,37,38)        176.6285         estimate D2E/DX2                !
 ! D144  D(94,36,37,95)         -4.3731         estimate D2E/DX2                !
 ! D145  D(36,37,38,39)        176.3311         estimate D2E/DX2                !
 ! D146  D(36,37,38,96)         -3.1965         estimate D2E/DX2                !
 ! D147  D(95,37,38,39)         -2.6095         estimate D2E/DX2                !
 ! D148  D(95,37,38,96)        177.8629         estimate D2E/DX2                !
 ! D149  D(37,38,39,40)         -9.9825         estimate D2E/DX2                !
 ! D150  D(37,38,39,97)        172.9294         estimate D2E/DX2                !
 ! D151  D(96,38,39,40)        169.5656         estimate D2E/DX2                !
 ! D152  D(96,38,39,97)         -7.5225         estimate D2E/DX2                !
 ! D153  D(38,39,40,41)       -177.7048         estimate D2E/DX2                !
 ! D154  D(38,39,40,98)          0.011          estimate D2E/DX2                !
 ! D155  D(97,39,40,41)         -0.7387         estimate D2E/DX2                !
 ! D156  D(97,39,40,98)        176.9771         estimate D2E/DX2                !
 ! D157  D(39,40,41,42)         -7.2135         estimate D2E/DX2                !
 ! D158  D(39,40,41,99)        173.8662         estimate D2E/DX2                !
 ! D159  D(98,40,41,42)        174.9486         estimate D2E/DX2                !
 ! D160  D(98,40,41,99)         -3.9717         estimate D2E/DX2                !
 ! D161  D(40,41,42,43)       -179.692          estimate D2E/DX2                !
 ! D162  D(40,41,42,100)        -1.5817         estimate D2E/DX2                !
 ! D163  D(99,41,42,43)         -0.8336         estimate D2E/DX2                !
 ! D164  D(99,41,42,100)       177.2766         estimate D2E/DX2                !
 ! D165  D(41,42,43,44)        -10.0826         estimate D2E/DX2                !
 ! D166  D(41,42,43,101)       170.5358         estimate D2E/DX2                !
 ! D167  D(100,42,43,44)       171.7312         estimate D2E/DX2                !
 ! D168  D(100,42,43,101)       -7.6504         estimate D2E/DX2                !
 ! D169  D(42,43,44,45)        178.2364         estimate D2E/DX2                !
 ! D170  D(42,43,44,102)        -1.7834         estimate D2E/DX2                !
 ! D171  D(101,43,44,45)        -2.4083         estimate D2E/DX2                !
 ! D172  D(101,43,44,102)      177.5719         estimate D2E/DX2                !
 ! D173  D(43,44,45,46)         -6.9251         estimate D2E/DX2                !
 ! D174  D(43,44,45,103)       175.7924         estimate D2E/DX2                !
 ! D175  D(102,44,45,46)       173.0936         estimate D2E/DX2                !
 ! D176  D(102,44,45,103)       -4.1888         estimate D2E/DX2                !
 ! D177  D(44,45,46,47)       -176.4559         estimate D2E/DX2                !
 ! D178  D(44,45,46,104)         0.4573         estimate D2E/DX2                !
 ! D179  D(103,45,46,47)         0.7582         estimate D2E/DX2                !
 ! D180  D(103,45,46,104)      177.6714         estimate D2E/DX2                !
 ! D181  D(45,46,47,48)        171.6981         estimate D2E/DX2                !
 ! D182  D(45,46,47,105)        -5.2259         estimate D2E/DX2                !
 ! D183  D(104,46,47,48)        -5.2967         estimate D2E/DX2                !
 ! D184  D(104,46,47,105)      177.7793         estimate D2E/DX2                !
 ! D185  D(46,47,48,49)       -175.9454         estimate D2E/DX2                !
 ! D186  D(46,47,48,106)         0.8701         estimate D2E/DX2                !
 ! D187  D(105,47,48,49)         0.9661         estimate D2E/DX2                !
 ! D188  D(105,47,48,106)      177.7816         estimate D2E/DX2                !
 ! D189  D(47,48,49,50)        171.775          estimate D2E/DX2                !
 ! D190  D(47,48,49,107)        -5.1829         estimate D2E/DX2                !
 ! D191  D(106,48,49,50)        -5.0515         estimate D2E/DX2                !
 ! D192  D(106,48,49,107)      177.9907         estimate D2E/DX2                !
 ! D193  D(48,49,50,51)       -176.114          estimate D2E/DX2                !
 ! D194  D(48,49,50,108)         0.9835         estimate D2E/DX2                !
 ! D195  D(107,49,50,51)         0.8295         estimate D2E/DX2                !
 ! D196  D(107,49,50,108)      177.927          estimate D2E/DX2                !
 ! D197  D(49,50,51,52)        172.9196         estimate D2E/DX2                !
 ! D198  D(49,50,51,109)        -4.5334         estimate D2E/DX2                !
 ! D199  D(108,50,51,52)        -4.1883         estimate D2E/DX2                !
 ! D200  D(108,50,51,109)      178.3587         estimate D2E/DX2                !
 ! D201  D(50,51,52,53)       -176.873          estimate D2E/DX2                !
 ! D202  D(50,51,52,110)         0.8879         estimate D2E/DX2                !
 ! D203  D(109,51,52,53)         0.568          estimate D2E/DX2                !
 ! D204  D(109,51,52,110)      178.3289         estimate D2E/DX2                !
 ! D205  D(51,52,53,54)        174.8123         estimate D2E/DX2                !
 ! D206  D(51,52,53,111)        -3.4158         estimate D2E/DX2                !
 ! D207  D(110,52,53,54)        -2.9577         estimate D2E/DX2                !
 ! D208  D(110,52,53,111)      178.8141         estimate D2E/DX2                !
 ! D209  D(52,53,54,55)       -177.9503         estimate D2E/DX2                !
 ! D210  D(52,53,54,112)         0.6471         estimate D2E/DX2                !
 ! D211  D(111,53,54,55)         0.2692         estimate D2E/DX2                !
 ! D212  D(111,53,54,112)      178.8665         estimate D2E/DX2                !
 ! D213  D(53,54,55,56)        176.9593         estimate D2E/DX2                !
 ! D214  D(53,54,55,113)        -2.0997         estimate D2E/DX2                !
 ! D215  D(112,54,55,56)        -1.6444         estimate D2E/DX2                !
 ! D216  D(112,54,55,113)      179.2966         estimate D2E/DX2                !
 ! D217  D(54,55,56,57)       -179.0315         estimate D2E/DX2                !
 ! D218  D(54,55,56,114)         0.3464         estimate D2E/DX2                !
 ! D219  D(113,55,56,57)         0.0228         estimate D2E/DX2                !
 ! D220  D(113,55,56,114)      179.4007         estimate D2E/DX2                !
 ! D221  D(55,56,57,58)        178.8354         estimate D2E/DX2                !
 ! D222  D(55,56,57,115)        -0.8732         estimate D2E/DX2                !
 ! D223  D(114,56,57,58)        -0.5457         estimate D2E/DX2                !
 ! D224  D(114,56,57,115)      179.7457         estimate D2E/DX2                !
 ! D225  D(56,57,58,116)         0.0592         estimate D2E/DX2                !
 ! D226  D(56,57,58,117)      -179.7873         estimate D2E/DX2                !
 ! D227  D(115,57,58,116)      179.7705         estimate D2E/DX2                !
 ! D228  D(115,57,58,117)       -0.076          estimate D2E/DX2                !
 --------------------------------------------------------------------------------
 Trust Radius=3.00D-01 FncErr=1.00D-07 GrdErr=1.00D-06 EigMax=2.50D+02 EigMin=1.00D-04
 Number of steps in this run=    529 maximum allowed number of steps=    708.
 GradGradGradGradGradGradGradGradGradGradGradGradGradGradGradGradGradGrad

 Stoichiometry    C58H60
 Framework group  C1[X(C58H60)]
 Deg. of freedom   348
 Full point group                 C1      NOp   1
 Largest Abelian subgroup         C1      NOp   1
 Largest concise Abelian subgroup C1      NOp   1
                         Standard orientation:                         
 ---------------------------------------------------------------------
 Center     Atomic      Atomic             Coordinates (Angstroms)
 Number     Number       Type             X           Y           Z
 ---------------------------------------------------------------------
      1          6           0      -32.444016    4.337452   -0.823412
      2          6           0      -31.572884    3.455419   -0.328174
      3          6           0      -30.123411    3.593033   -0.576547
      4          6           0      -29.251635    2.708177   -0.075398
      5          6           0      -27.802228    2.847705   -0.324860
      6          6           0      -26.927257    1.967837    0.179423
      7          6           0      -25.479164    2.111645   -0.074074
      8          6           0      -24.598649    1.238083    0.431291
      9          6           0      -23.152888    1.387477    0.168842
     10          6           0      -22.264432    0.519548    0.669759
     11          6           0      -20.822450    0.674840    0.391271
     12          6           0      -19.923908   -0.189988    0.879144
     13          6           0      -18.487589   -0.029268    0.576144
     14          6           0      -17.577109   -0.894571    1.040982
     15          6           0      -16.147280   -0.730440    0.705920
     16          6           0      -15.228872   -1.608230    1.146023
     17          6           0      -13.774029   -1.545200    0.839077
     18          6           0      -13.190602   -0.588431    0.086978
     19          6           0      -11.744636   -0.533249   -0.249230
     20          6           0      -10.820500   -1.428679    0.139617
     21          6           0       -9.412624   -1.276408   -0.284652
     22          6           0       -8.478955   -2.168752    0.088787
     23          6           0       -7.042817   -2.111187   -0.294568
     24          6           0       -6.498808   -1.167712   -1.091801
     25          6           0       -5.064428   -1.101141   -1.473235
     26          6           0       -4.113871   -1.960929   -1.069654
     27          6           0       -2.711042   -1.770692   -1.490230
     28          6           0       -1.741161   -2.577622   -1.043196
     29          6           0       -0.333945   -2.338077   -1.417641
     30          6           0        0.653040   -3.065228   -0.881411
     31          6           0        2.063072   -2.755903   -1.187563
     32          6           0        3.055118   -3.368715   -0.531688
     33          6           0        4.459234   -2.973290   -0.754557
     34          6           0        5.431160   -3.446861    0.033634
     35          6           0        6.818647   -2.959993   -0.100574
     36          6           0        7.738341   -3.294600    0.818912
     37          6           0        9.129724   -2.780075    0.858656
     38          6           0        9.702952   -2.016261   -0.095746
     39          6           0       11.074601   -1.443829   -0.003407
     40          6           0       11.824303   -1.460367    1.117779
     41          6           0       13.172776   -0.858179    1.258947
     42          6           0       13.903088   -0.328295    0.255848
     43          6           0       15.258892    0.262864    0.434191
     44          6           0       15.826565    0.512536    1.633179
     45          6           0       17.187961    1.065507    1.837268
     46          6           0       18.095695    1.272826    0.869258
     47          6           0       19.445582    1.757469    1.222747
     48          6           0       20.423885    1.819143    0.311415
     49          6           0       21.787210    2.222344    0.710288
     50          6           0       22.812438    2.134374   -0.145545
     51          6           0       24.184371    2.460158    0.293287
     52          6           0       25.234054    2.242549   -0.508455
     53          6           0       26.609194    2.506265   -0.038322
     54          6           0       27.667358    2.194118   -0.797032
     55          6           0       29.042903    2.417174   -0.306711
     56          6           0       30.102288    2.050031   -1.039029
     57          6           0       31.477056    2.253949   -0.539090
     58          6           0       32.535456    1.868658   -1.255432
     59          1           0      -32.111356    5.180328   -1.422176
     60          1           0      -31.944525    2.625390    0.266703
     61          1           0      -29.763673    4.426996   -1.175151
     62          1           0      -29.611024    1.874699    0.523914
     63          1           0      -27.444664    3.679645   -0.927576
     64          1           0      -27.282676    1.135852    0.783114
     65          1           0      -25.126952    2.941794   -0.682440
     66          1           0      -24.947600    0.407179    1.040189
     67          1           0      -22.808884    2.216749   -0.445455
     68          1           0      -22.604001   -0.311672    1.283467
     69          1           0      -20.489679    1.505044   -0.228007
     70          1           0      -20.251131   -1.023638    1.496202
     71          1           0      -18.169455    0.804306   -0.046321
     72          1           0      -17.890797   -1.732427    1.659371
     73          1           0      -15.868812    0.110983    0.084292
     74          1           0      -15.556172   -2.441251    1.762532
     75          1           0      -13.180391   -2.346831    1.258196
     76          1           0      -13.781332    0.213661   -0.333400
     77          1           0      -11.432430    0.301704   -0.871318
     78          1           0      -11.083244   -2.279322    0.756588
     79          1           0       -9.161175   -0.428138   -0.908607
     80          1           0       -8.776057   -3.003279    0.718440
     81          1           0       -6.427425   -2.901434    0.114292
     82          1           0       -7.112793   -0.379127   -1.504539
     83          1           0       -4.780118   -0.275887   -2.121093
     84          1           0       -4.344747   -2.793137   -0.416012
     85          1           0       -2.461239   -0.942082   -2.149386
     86          1           0       -1.983069   -3.394379   -0.366784
     87          1           0       -0.096485   -1.527102   -2.102770
     88          1           0        0.420193   -3.855685   -0.171301
     89          1           0        2.293375   -1.976820   -1.911042
     90          1           0        2.823921   -4.119530    0.220830
     91          1           0        4.693170   -2.238801   -1.522068
     92          1           0        5.186530   -4.148533    0.828286
     93          1           0        7.052795   -2.280305   -0.911358
     94          1           0        7.444452   -3.944182    1.639548
     95          1           0        9.680308   -3.052378    1.748334
     96          1           0        9.159168   -1.775346   -1.000166
     97          1           0       11.440773   -0.952626   -0.896043
     98          1           0       11.440824   -1.907481    2.024409
     99          1           0       13.566123   -0.885537    2.265540
    100          1           0       13.525295   -0.341909   -0.758684
    101          1           0       15.788731    0.503494   -0.478828
    102          1           0       15.287368    0.310945    2.548217
    103          1           0       17.467020    1.273164    2.867221
    104          1           0       17.877840    1.045509   -0.167791
    105          1           0       19.658794    2.021864    2.256391
    106          1           0       20.229310    1.522279   -0.716606
    107          1           0       21.965883    2.549303    1.732429
    108          1           0       22.644156    1.775810   -1.158493
    109          1           0       24.343857    2.843910    1.298632
    110          1           0       25.078937    1.833277   -1.504176
    111          1           0       26.760653    2.933724    0.950419
    112          1           0       27.516705    1.749586   -1.778236
    113          1           0       29.192551    2.872370    0.669813
    114          1           0       29.953026    1.585893   -2.011353
    115          1           0       31.638110    2.720447    0.429151
    116          1           0       32.415171    1.395660   -2.225655
    117          1           0       33.537333    2.024374   -0.868757
    118          1           0      -33.505095    4.218846   -0.629514
 ---------------------------------------------------------------------
 Rotational constants (GHZ):           0.1266906           0.0018432           0.0018240
 Standard basis: 6-31G(d,p) (6D, 7F)
 There are  1170 symmetry adapted cartesian basis functions of A   symmetry.
 There are  1170 symmetry adapted basis functions of A   symmetry.
  1170 basis functions,  2044 primitive gaussians,  1170 cartesian basis functions
   204 alpha electrons      204 beta electrons
       nuclear repulsion energy      4502.9211108071 Hartrees.
 NAtoms=  118 NActive=  118 NUniq=  118 SFac= 1.00D+00 NAtFMM=   60 NAOKFM=T Big=T
 Integral buffers will be    131072 words long.
 Raffenetti 2 integral format.
 Two-electron integral symmetry is turned on.
 One-electron integrals computed using PRISM.
 NBasis=  1170 RedAO= T EigKep=  7.65D-04  NBF=  1170
 NBsUse=  1170 1.00D-06 EigRej= -1.00D+00 NBFU=  1170
 ExpMin= 1.61D-01 ExpMax= 3.05D+03 ExpMxC= 4.57D+02 IAcc=3 IRadAn=         5 AccDes= 0.00D+00
 Harris functional with IExCor=  402 and IRadAn=       5 diagonalized for initial guess.
 HarFok:  IExCor=  402 AccDes= 0.00D+00 IRadAn=         5 IDoV= 1 UseB2=F ITyADJ=14
 ICtDFT=  3500011 ScaDFX=  1.000000  1.000000  1.000000  1.000000
 FoFCou: FMM=F IPFlag=           0 FMFlag=      100000 FMFlg1=        2001
         NFxFlg=           0 DoJE=T BraDBF=F KetDBF=T FulRan=T
         wScrn=  0.000000 ICntrl=       500 IOpCl=  0 I1Cent=   200000004 NGrid=           0
         NMat0=    1 NMatS0=      1 NMatT0=    0 NMatD0=    1 NMtDS0=    0 NMtDT0=    0
 Petite list used in FoFCou.
 Requested convergence on RMS density matrix=1.00D-08 within 128 cycles.
 Requested convergence on MAX density matrix=1.00D-06.
 Requested convergence on             energy=1.00D-06.
 No special actions if energy rises.
 Integral accuracy reduced to 1.0D-05 until final iterations.
 Initial convergence to 1.0D-05 achieved.  Increase integral accuracy.
 SCF Done:  E(RB3LYP) =  -2245.97553953     A.U. after   13 cycles
            NFock= 13  Conv=0.63D-08     -V/T= 2.0101
 Hyperfine terms turned off by default for NAtoms > 100.

 **********************************************************************

            Population analysis using the SCF Density.

 **********************************************************************

 Orbital symmetries:
       Occupied  (A) (A) (A) (A) (A) (A) (A) (A) (A) (A) (A) (A)
                 (A) (A) (A) (A) (A) (A) (A) (A) (A) (A) (A) (A)
                 (A) (A) (A) (A) (A) (A) (A) (A) (A) (A) (A) (A)
                 (A) (A) (A) (A) (A) (A) (A) (A) (A) (A) (A) (A)
                 (A) (A) (A) (A) (A) (A) (A) (A) (A) (A) (A) (A)
                 (A) (A) (A) (A) (A) (A) (A) (A) (A) (A) (A) (A)
                 (A) (A) (A) (A) (A) (A) (A) (A) (A) (A) (A) (A)
                 (A) (A) (A) (A) (A) (A) (A) (A) (A) (A) (A) (A)
                 (A) (A) (A) (A) (A) (A) (A) (A) (A) (A) (A) (A)
                 (A) (A) (A) (A) (A) (A) (A) (A) (A) (A) (A) (A)
                 (A) (A) (A) (A) (A) (A) (A) (A) (A) (A) (A) (A)
                 (A) (A) (A) (A) (A) (A) (A) (A) (A) (A) (A) (A)
                 (A) (A) (A) (A) (A) (A) (A) (A) (A) (A) (A) (A)
                 (A) (A) (A) (A) (A) (A) (A) (A) (A) (A) (A) (A)
                 (A) (A) (A) (A) (A) (A) (A) (A) (A) (A) (A) (A)
                 (A) (A) (A) (A) (A) (A) (A) (A) (A) (A) (A) (A)
                 (A) (A) (A) (A) (A) (A) (A) (A) (A) (A) (A) (A)
       Virtual   (A) (A) (A) (A) (A) (A) (A) (A) (A) (A) (A) (A)
                 (A) (A) (A) (A) (A) (A) (A) (A) (A) (A) (A) (A)
                 (A) (A) (A) (A) (A) (A) (A) (A) (A) (A) (A) (A)
                 (A) (A) (A) (A) (A) (A) (A) (A) (A) (A) (A) (A)
                 (A) (A) (A) (A) (A) (A) (A) (A) (A) (A) (A) (A)
                 (A) (A) (A) (A) (A) (A) (A) (A) (A) (A) (A) (A)
                 (A) (A) (A) (A) (A) (A) (A) (A) (A) (A) (A) (A)
                 (A) (A) (A) (A) (A) (A) (A) (A) (A) (A) (A) (A)
                 (A) (A) (A) (A) (A) (A) (A) (A) (A) (A) (A) (A)
                 (A) (A) (A) (A) (A) (A) (A) (A) (A) (A) (A) (A)
                 (A) (A) (A) (A) (A) (A) (A) (A) (A) (A) (A) (A)
                 (A) (A) (A) (A) (A) (A) (A) (A) (A) (A) (A) (A)
                 (A) (A) (A) (A) (A) (A) (A) (A) (A) (A) (A) (A)
                 (A) (A) (A) (A) (A) (A) (A) (A) (A) (A) (A) (A)
                 (A) (A) (A) (A) (A) (A) (A) (A) (A) (A) (A) (A)
                 (A) (A) (A) (A) (A) (A) (A) (A) (A) (A) (A) (A)
                 (A) (A) (A) (A) (A) (A) (A) (A) (A) (A) (A) (A)
                 (A) (A) (A) (A) (A) (A) (A) (A) (A) (A) (A) (A)
                 (A) (A) (A) (A) (A) (A) (A) (A) (A) (A) (A) (A)
                 (A) (A) (A) (A) (A) (A) (A) (A) (A) (A) (A) (A)
                 (A) (A) (A) (A) (A) (A) (A) (A) (A) (A) (A) (A)
                 (A) (A) (A) (A) (A) (A) (A) (A) (A) (A) (A) (A)
                 (A) (A) (A) (A) (A) (A) (A) (A) (A) (A) (A) (A)
                 (A) (A) (A) (A) (A) (A) (A) (A) (A) (A) (A) (A)
                 (A) (A) (A) (A) (A) (A) (A) (A) (A) (A) (A) (A)
                 (A) (A) (A) (A) (A) (A) (A) (A) (A) (A) (A) (A)
                 (A) (A) (A) (A) (A) (A) (A) (A) (A) (A) (A) (A)
                 (A) (A) (A) (A) (A) (A) (A) (A) (A) (A) (A) (A)
                 (A) (A) (A) (A) (A) (A) (A) (A) (A) (A) (A) (A)
                 (A) (A) (A) (A) (A) (A) (A) (A) (A) (A) (A) (A)
                 (A) (A) (A) (A) (A) (A) (A) (A) (A) (A) (A) (A)
                 (A) (A) (A) (A) (A) (A) (A) (A) (A) (A) (A) (A)
                 (A) (A) (A) (A) (A) (A) (A) (A) (A) (A) (A) (A)
                 (A) (A) (A) (A) (A) (A) (A) (A) (A) (A) (A) (A)
                 (A) (A) (A) (A) (A) (A) (A) (A) (A) (A) (A) (A)
                 (A) (A) (A) (A) (A) (A) (A) (A) (A) (A) (A) (A)
                 (A) (A) (A) (A) (A) (A) (A) (A) (A) (A) (A) (A)
                 (A) (A) (A) (A) (A) (A) (A) (A) (A) (A) (A) (A)
                 (A) (A) (A) (A) (A) (A) (A) (A) (A) (A) (A) (A)
                 (A) (A) (A) (A) (A) (A) (A) (A) (A) (A) (A) (A)
                 (A) (A) (A) (A) (A) (A) (A) (A) (A) (A) (A) (A)
                 (A) (A) (A) (A) (A) (A) (A) (A) (A) (A) (A) (A)
                 (A) (A) (A) (A) (A) (A) (A) (A) (A) (A) (A) (A)
                 (A) (A) (A) (A) (A) (A) (A) (A) (A) (A) (A) (A)
                 (A) (A) (A) (A) (A) (A) (A) (A) (A) (A) (A) (A)
                 (A) (A) (A) (A) (A) (A) (A) (A) (A) (A) (A) (A)
                 (A) (A) (A) (A) (A) (A) (A) (A) (A) (A) (A) (A)
                 (A) (A) (A) (A) (A) (A) (A) (A) (A) (A) (A) (A)
                 (A) (A) (A) (A) (A) (A) (A) (A) (A) (A) (A) (A)
                 (A) (A) (A) (A) (A) (A) (A) (A) (A) (A) (A) (A)
                 (A) (A) (A) (A) (A) (A) (A) (A) (A) (A) (A) (A)
                 (A) (A) (A) (A) (A) (A) (A) (A) (A) (A) (A) (A)
                 (A) (A) (A) (A) (A) (A) (A) (A) (A) (A) (A) (A)
                 (A) (A) (A) (A) (A) (A) (A) (A) (A) (A) (A) (A)
                 (A) (A) (A) (A) (A) (A) (A) (A) (A) (A) (A) (A)
                 (A) (A) (A) (A) (A) (A) (A) (A) (A) (A) (A) (A)
                 (A) (A) (A) (A) (A) (A) (A) (A) (A) (A) (A) (A)
                 (A) (A) (A) (A) (A) (A) (A) (A) (A) (A) (A) (A)
                 (A) (A) (A) (A) (A) (A) (A) (A) (A) (A) (A) (A)
                 (A) (A) (A) (A) (A) (A) (A) (A) (A) (A) (A) (A)
                 (A) (A) (A) (A) (A) (A) (A) (A) (A) (A) (A) (A)
                 (A) (A) (A) (A) (A) (A) (A) (A) (A) (A) (A) (A)
                 (A) (A) (A) (A) (A) (A) (A) (A) (A) (A) (A) (A)
                 (A) (A) (A) (A) (A) (A) (A) (A) (A) (A) (A) (A)
                 (A) (A) (A) (A) (A) (A) (A) (A) (A) (A) (A) (A)
                 (A) (A) (A) (A) (A) (A) (A) (A) (A) (A) (A) (A)
                 (A) (A) (A) (A) (A) (A) (A) (A) (A) (A) (A) (A)
                 (A) (A) (A) (A) (A) (A) (A) (A) (A) (A) (A) (A)
                 (A) (A) (A) (A) (A) (A) (A) (A) (A) (A) (A) (A)
                 (A) (A) (A) (A) (A) (A) (A) (A) (A) (A) (A) (A)
                 (A) (A) (A) (A) (A) (A) (A) (A) (A) (A) (A) (A)
                 (A) (A) (A) (A) (A) (A) (A) (A) (A) (A) (A) (A)
                 (A) (A) (A) (A) (A) (A) (A) (A) (A) (A) (A) (A)
                 (A) (A) (A) (A) (A) (A) (A) (A) (A) (A) (A) (A)
                 (A) (A) (A) (A) (A) (A) (A) (A) (A) (A) (A) (A)
                 (A) (A) (A) (A) (A) (A) (A) (A) (A) (A) (A) (A)
                 (A) (A) (A) (A) (A) (A) (A) (A) (A) (A) (A) (A)
                 (A) (A) (A) (A) (A) (A) (A) (A) (A) (A) (A) (A)
                 (A) (A) (A) (A) (A) (A) (A) (A) (A) (A) (A) (A)
                 (A) (A) (A) (A) (A) (A) (A) (A) (A) (A) (A) (A)
                 (A) (A) (A) (A) (A) (A)
 The electronic state is 1-A.
 Alpha  occ. eigenvalues --  -10.19296 -10.19274 -10.19258 -10.19246 -10.19242
 Alpha  occ. eigenvalues --  -10.19238 -10.19225 -10.19201 -10.19196 -10.19181
 Alpha  occ. eigenvalues --  -10.19180 -10.19175 -10.19170 -10.19148 -10.19148
 Alpha  occ. eigenvalues --  -10.19144 -10.19143 -10.19138 -10.19133 -10.19131
 Alpha  occ. eigenvalues --  -10.19125 -10.19124 -10.19123 -10.19122 -10.19121
 Alpha  occ. eigenvalues --  -10.19118 -10.19117 -10.19112 -10.19107 -10.19104
 Alpha  occ. eigenvalues --  -10.19104 -10.19100 -10.19097 -10.19091 -10.19089
 Alpha  occ. eigenvalues --  -10.19085 -10.19083 -10.19078 -10.19074 -10.19067
 Alpha  occ. eigenvalues --  -10.19061 -10.19060 -10.19056 -10.19046 -10.19041
 Alpha  occ. eigenvalues --  -10.19040 -10.19038 -10.19032 -10.19032 -10.19014
 Alpha  occ. eigenvalues --  -10.19009 -10.19001 -10.18993 -10.18979 -10.18979
 Alpha  occ. eigenvalues --  -10.18915 -10.17957 -10.17903  -0.83007  -0.82930
 Alpha  occ. eigenvalues --   -0.82895  -0.82643  -0.82455  -0.82268  -0.82017
 Alpha  occ. eigenvalues --   -0.81696  -0.81334  -0.80979  -0.80550  -0.80087
 Alpha  occ. eigenvalues --   -0.79597  -0.79063  -0.78495  -0.77895  -0.77258
 Alpha  occ. eigenvalues --   -0.76582  -0.75893  -0.75185  -0.74359  -0.73640
 Alpha  occ. eigenvalues --   -0.72880  -0.71985  -0.71213  -0.70403  -0.69885
 Alpha  occ. eigenvalues --   -0.68765  -0.68149  -0.65078  -0.64461  -0.62982
 Alpha  occ. eigenvalues --   -0.62529  -0.61760  -0.61311  -0.60035  -0.59089
 Alpha  occ. eigenvalues --   -0.58781  -0.57701  -0.57153  -0.56963  -0.56881
 Alpha  occ. eigenvalues --   -0.56847  -0.56757  -0.56279  -0.56167  -0.55863
 Alpha  occ. eigenvalues --   -0.55741  -0.55308  -0.55091  -0.54981  -0.54917
 Alpha  occ. eigenvalues --   -0.54473  -0.54439  -0.52690  -0.52273  -0.51810
 Alpha  occ. eigenvalues --   -0.50117  -0.50031  -0.49069  -0.48643  -0.48418
 Alpha  occ. eigenvalues --   -0.48103  -0.47849  -0.47445  -0.47342  -0.46902
 Alpha  occ. eigenvalues --   -0.46563  -0.46289  -0.45734  -0.45613  -0.45164
 Alpha  occ. eigenvalues --   -0.44852  -0.44412  -0.44388  -0.43583  -0.43438
 Alpha  occ. eigenvalues --   -0.43017  -0.42677  -0.41756  -0.41491  -0.41433
 Alpha  occ. eigenvalues --   -0.40954  -0.40623  -0.40445  -0.39942  -0.39617
 Alpha  occ. eigenvalues --   -0.39343  -0.39115  -0.38824  -0.38561  -0.38290
 Alpha  occ. eigenvalues --   -0.38162  -0.37895  -0.37862  -0.37600  -0.37539
 Alpha  occ. eigenvalues --   -0.37395  -0.37122  -0.36982  -0.36693  -0.36454
 Alpha  occ. eigenvalues --   -0.36331  -0.36029  -0.35853  -0.35820  -0.35481
 Alpha  occ. eigenvalues --   -0.35304  -0.35246  -0.35171  -0.35141  -0.35091
 Alpha  occ. eigenvalues --   -0.34906  -0.34727  -0.34676  -0.34409  -0.34366
 Alpha  occ. eigenvalues --   -0.34292  -0.34065  -0.34036  -0.33800  -0.33633
 Alpha  occ. eigenvalues --   -0.33196  -0.33173  -0.33126  -0.33068  -0.32723
 Alpha  occ. eigenvalues --   -0.32190  -0.31591  -0.30960  -0.30284  -0.29550
 Alpha  occ. eigenvalues --   -0.28775  -0.27956  -0.27088  -0.26185  -0.25244
 Alpha  occ. eigenvalues --   -0.24243  -0.23239  -0.22207  -0.21132  -0.20067
 Alpha  occ. eigenvalues --   -0.19015  -0.18113  -0.17191  -0.16576
 Alpha virt. eigenvalues --   -0.08521  -0.07879  -0.06561  -0.05784  -0.04651
 Alpha virt. eigenvalues --   -0.03576  -0.02205  -0.01135  -0.00116   0.01298
 Alpha virt. eigenvalues --    0.02191   0.03301   0.04379   0.05113   0.06118
 Alpha virt. eigenvalues --    0.07000   0.07507   0.07818   0.07934   0.08218
 Alpha virt. eigenvalues --    0.08254   0.08439   0.08723   0.08761   0.09004
 Alpha virt. eigenvalues --    0.09042   0.09465   0.09477   0.09618   0.09681
 Alpha virt. eigenvalues --    0.09854   0.09891   0.09916   0.10368   0.10956
 Alpha virt. eigenvalues --    0.11497   0.11570   0.11991   0.12112   0.12170
 Alpha virt. eigenvalues --    0.12342   0.12574   0.12623   0.12727   0.12817
 Alpha virt. eigenvalues --    0.13056   0.13214   0.13248   0.13377   0.13800
 Alpha virt. eigenvalues --    0.13984   0.14051   0.14088   0.14190   0.14254
 Alpha virt. eigenvalues --    0.14376   0.14463   0.14528   0.14674   0.14863
 Alpha virt. eigenvalues --    0.14919   0.15055   0.15218   0.15436   0.15484
 Alpha virt. eigenvalues --    0.15559   0.15750   0.15856   0.16223   0.16597
 Alpha virt. eigenvalues --    0.16638   0.17164   0.17822   0.18286   0.19018
 Alpha virt. eigenvalues --    0.19473   0.19737   0.19948   0.19992   0.20570
 Alpha virt. eigenvalues --    0.20611   0.21201   0.21385   0.22060   0.22471
 Alpha virt. eigenvalues --    0.22659   0.22887   0.24862   0.25678   0.26052
 Alpha virt. eigenvalues --    0.26103   0.27198   0.27423   0.27547   0.28402
 Alpha virt. eigenvalues --    0.28523   0.28618   0.28703   0.29188   0.30236
 Alpha virt. eigenvalues --    0.30881   0.31125   0.31247   0.31432   0.31819
 Alpha virt. eigenvalues --    0.32549   0.32728   0.32807   0.32948   0.33264
 Alpha virt. eigenvalues --    0.33824   0.33870   0.34133   0.35066   0.35533
 Alpha virt. eigenvalues --    0.36018   0.36074   0.36187   0.36378   0.36538
 Alpha virt. eigenvalues --    0.36864   0.37276   0.38068   0.38417   0.38488
 Alpha virt. eigenvalues --    0.38948   0.39472   0.39672   0.40718   0.40845
 Alpha virt. eigenvalues --    0.41528   0.41622   0.41687   0.41825   0.42015
 Alpha virt. eigenvalues --    0.42103   0.42341   0.42553   0.43553   0.44112
 Alpha virt. eigenvalues --    0.44499   0.45102   0.45683   0.47005   0.47530
 Alpha virt. eigenvalues --    0.48230   0.48811   0.49192   0.50576   0.51395
 Alpha virt. eigenvalues --    0.51467   0.51620   0.51725   0.51890   0.52050
 Alpha virt. eigenvalues --    0.52096   0.52297   0.52364   0.52632   0.52938
 Alpha virt. eigenvalues --    0.53269   0.53391   0.53563   0.53676   0.53799
 Alpha virt. eigenvalues --    0.54298   0.54810   0.54920   0.55040   0.55377
 Alpha virt. eigenvalues --    0.55575   0.56007   0.56122   0.56273   0.56373
 Alpha virt. eigenvalues --    0.56739   0.57021   0.57133   0.57250   0.57426
 Alpha virt. eigenvalues --    0.57450   0.57584   0.57720   0.58041   0.58210
 Alpha virt. eigenvalues --    0.58422   0.58743   0.58780   0.58829   0.58901
 Alpha virt. eigenvalues --    0.58982   0.59062   0.59151   0.59244   0.59252
 Alpha virt. eigenvalues --    0.59353   0.59471   0.59545   0.59613   0.60128
 Alpha virt. eigenvalues --    0.60200   0.60410   0.60511   0.60738   0.60903
 Alpha virt. eigenvalues --    0.61113   0.61184   0.61274   0.61460   0.61940
 Alpha virt. eigenvalues --    0.62021   0.62181   0.62457   0.62751   0.62998
 Alpha virt. eigenvalues --    0.63141   0.63315   0.63441   0.63741   0.63836
 Alpha virt. eigenvalues --    0.63918   0.64269   0.64417   0.64622   0.64871
 Alpha virt. eigenvalues --    0.65156   0.65197   0.65297   0.65466   0.65516
 Alpha virt. eigenvalues --    0.65643   0.65717   0.66047   0.66151   0.66320
 Alpha virt. eigenvalues --    0.66539   0.66559   0.66702   0.66795   0.67228
 Alpha virt. eigenvalues --    0.67484   0.67805   0.68259   0.68343   0.68382
 Alpha virt. eigenvalues --    0.68576   0.69029   0.69610   0.69778   0.69871
 Alpha virt. eigenvalues --    0.70534   0.70768   0.71701   0.71904   0.72594
 Alpha virt. eigenvalues --    0.73200   0.73730   0.74293   0.75132   0.75198
 Alpha virt. eigenvalues --    0.75598   0.75738   0.76058   0.76154   0.78642
 Alpha virt. eigenvalues --    0.78761   0.78773   0.79232   0.79521   0.79645
 Alpha virt. eigenvalues --    0.80185   0.80578   0.80886   0.81332   0.81682
 Alpha virt. eigenvalues --    0.81862   0.81998   0.82142   0.82749   0.83067
 Alpha virt. eigenvalues --    0.83385   0.83820   0.83894   0.84351   0.84554
 Alpha virt. eigenvalues --    0.84582   0.84668   0.84872   0.85023   0.85100
 Alpha virt. eigenvalues --    0.85291   0.85472   0.85629   0.85795   0.85907
 Alpha virt. eigenvalues --    0.86094   0.86294   0.86461   0.86727   0.86758
 Alpha virt. eigenvalues --    0.87019   0.87200   0.87342   0.87366   0.87458
 Alpha virt. eigenvalues --    0.87568   0.87730   0.87796   0.87952   0.88381
 Alpha virt. eigenvalues --    0.88499   0.88564   0.89015   0.89190   0.89421
 Alpha virt. eigenvalues --    0.89685   0.90089   0.90861   0.91041   0.91093
[...]
 0000097,-0.00000013,0.00000174,-0.00000074,0.00000187,0.00000170,-0.00
 000095,-0.00000167,-0.00000108,0.00000063,0.00000039,-0.00000194,0.000
 00078,-0.00000043,0.00000149,-0.00000062,0.00000022,-0.00000224,0.0000
 0089,-0.00000023,0.00000169,-0.00000072,0.00000001,-0.00000261,0.00000
 108,-0.00000001,0.00000193,-0.00000088,-0.00000023,-0.00000298,0.00000
 125,0.00000024,0.00000221,-0.00000104,-0.00000048,-0.00000329,0.000001
 54,0.00000059,0.00000227,-0.00000114,-0.00000117,-0.00000563,0.0000022
 8,0.00000050,0.00000315,-0.00000139,0.00000354,0.00000504,-0.00000262,
 -0.00000260,-0.00000275,0.00000131,-0.00000081,-0.00000668,0.00000338,
 -0.00000014,0.00000424,-0.00000224,0.00000496,0.00000551,-0.00000457,-
 0.00000395,-0.00000317,0.00000240,-0.00000057,-0.00000799,0.00000619,-
 0.00000108,0.00000469,-0.00000366,0.00000401,0.00000355,-0.00000707,-0
 .00000397,-0.00000464,0.00000495,0.00000581,0.00001451,0.00000004,-0.0
 0000464,-0.00001090,0.00000523,-0.00000769,-0.00001520,-0.00005300,-0.
 00000623,-0.00001273,0.00002033,0.00004605,0.00018474,0.00015144,-0.00
 007009,-0.00007045,-0.00000068,-0.00023841,-0.00043002,-0.00105116,-0.
 00081722,-0.00007698,0.00049453,0.00187516,0.00763613,0.00520195,-0.01
 733069,0.00513002,0.00460744,0.01735202,0.00879653,-0.04238084,0.00000
 003,-0.00000002,0.00000002,0.,0.00000013,-0.00000003,0.,0.00000002,0.0
 0000001,-0.00000002,0.00000015,-0.00000006,0.,0.00000004,0.,-0.0000000
 3,0.00000017,-0.00000007,0.,0.00000005,-0.00000001,-0.00000003,0.00000
 020,-0.00000008,0.,0.00000006,-0.00000002,-0.00000003,0.00000022,-0.00
 000009,0.,0.00000007,-0.00000003,-0.00000004,0.00000025,-0.00000010,0.
 ,0.00000009,-0.00000003,-0.00000004,0.00000027,-0.00000010,0.00000001,
 0.00000011,-0.00000005,-0.00000013,0.00000032,-0.00000011,0.00000008,-
 0.00000011,0.00000005,-0.00000034,-0.00000009,0.00000009,0.00000013,0.
 00000003,-0.00000002,-0.00000009,0.00000030,-0.00000010,0.00000003,0.0
 0000013,-0.00000004,-0.00000018,0.00000040,-0.00000014,0.00000008,-0.0
 0000015,0.00000007,-0.00000045,-0.00000011,0.00000012,0.00000017,0.000
 00005,-0.00000002,-0.00000012,0.00000039,-0.00000013,0.00000002,0.0000
 0018,-0.00000005,-0.00000010,0.00000052,-0.00000018,0.,0.00000024,-0.0
 0000007,-0.00000010,0.00000061,-0.00000022,0.,0.00000028,-0.00000008,-
 0.00000012,0.00000070,-0.00000025,0.,0.00000032,-0.00000006,-0.0000001
 4,0.00000080,-0.00000029,0.00000002,0.00000033,-0.00000014,-0.00000041
 ,0.00000094,-0.00000030,0.00000019,-0.00000028,0.00000030,-0.00000105,
 -0.00000021,0.00000034,0.00000039,0.00000009,-0.00000011,-0.00000063,0
 .00000097,-0.00000032,0.00000025,-0.00000029,0.00000040,-0.00000139,-0
 .00000016,0.00000052,0.00000062,0.00000024,0.00000002,-0.00000095,0.00
 000136,-0.00000048,0.00000031,-0.00000048,0.00000042,-0.00000150,-0.00
 000031,0.00000100,-0.00000021,0.00000007,0.00000127,-0.00000211,-0.000
 00060,0.00000162,-0.00000093,-0.00000173,-0.00000064,-0.00000292,-0.00
 000034,0.00000280,0.00000296,0.00000947,0.00001446,-0.00000454,-0.0000
 0181,0.00000323,-0.00001022,-0.00003438,-0.00004463,-0.00000321,0.0000
 0510,0.00002175,0.00007476,0.00004942,0.00008722,-0.00032838,-0.000142
 00,-0.00009076,-0.00119542,-0.00382537,-0.00365307,0.01570672,-0.00483
 333,0.00206538,-0.01503338,-0.01236906,0.03459583,-0.27126516,0.122346
 24,-0.02137924,-0.01898376,0.01601700,-0.00379384,-0.00159988,-0.00343
 378,0.00299802,-0.00074761,0.00107315,-0.00032363,-0.00018303,-0.00038
 917,0.00000806,-0.00011794,0.00010354,-0.00003725,0.00001252,-0.000050
 98,0.00005636,-0.00003307,0.00002984,-0.00000723,0.00001499,-0.0000361
 8,0.00000504,-0.00001864,0.00001835,-0.00000588,0.00001308,-0.00002418
 ,0.00000992,-0.00001364,0.00001408,-0.00000422,0.00001057,-0.00001938,
 0.00000632,-0.00001133,0.00001132,-0.00000335,0.00000926,-0.00001546,0
 .00000525,-0.00001898,-0.00001069,0.00000671,0.00001805,0.00001213,-0.
 00000734,-0.00000258,0.00001748,-0.00000708,0.00000235,-0.00001891,0.0
 0000768,-0.00000405,0.00000635,-0.00000216,0.00000350,-0.00001018,0.00
 000380,-0.00001003,-0.00000707,0.00000423,0.00001062,0.00000972,-0.000
 00545,-0.00000043,0.00001049,-0.00000445,-0.00000008,-0.00001354,0.000
 00574,-0.00000102,0.00000485,-0.00000196,0.00000113,-0.00000790,0.0000
 0321,-0.00000119,0.00000482,-0.00000189,0.00000110,-0.00000701,0.00000
 279,-0.00000145,0.00000421,-0.00000162,0.00000124,-0.00000619,0.000002
 48,-0.00000157,0.00000370,-0.00000146,0.00000137,-0.00000533,0.0000021
 7,-0.00000164,0.00000332,-0.00000117,0.00000171,-0.00000452,0.00000167
 ,-0.00000467,-0.00000294,0.00000190,0.00000504,0.00000373,-0.00000242,
 -0.00000084,0.00000495,-0.00000246,0.00000059,-0.00000548,0.00000287,-
 0.00000306,-0.00000217,0.00000202,0.00000368,0.00000338,-0.00000305,-0
 .00000033,0.00000296,-0.00000215,-0.00000016,-0.00000420,0.00000324,-0
 .00000159,-0.00000152,0.00000167,0.00000277,0.00000313,-0.00000341,-0.
 00000123,-0.00000167,0.00000149,0.00000193,0.00000239,-0.00000225,-0.0
 0000135,-0.00000170,0.00000170,0.00000195,0.00000191,-0.00000215,-0.00
 000159,-0.00000136,0.00000150,0.00000216,0.00000158,-0.00000185,-0.000
 00178,-0.00000102,0.00000130,0.00000230,0.00000131,-0.00000171,-0.0000
 0190,-0.00000082,0.00000120,0.00000236,0.00000114,-0.00000156,-0.00000
 213,-0.00000055,0.00000116,0.00000241,0.00000094,-0.00000135,-0.000002
 12,0.00000055,0.00000015,0.00388543,-0.00281910,0.00096811,0.00091616,
 -0.00044504,-0.00076035,0.00016264,0.00006778,-0.00008155,0.00000514,-
 0.00005958,0.00004126,0.00001459,0.00001676,-0.00000566,0.00000049,-0.
 00000337,-0.00000755,-0.00000052,0.00001016,-0.00000405,0.00000063,0.0
 0000398,0.00000104,-0.00000153,0.00000758,-0.00000270,0.00000003,0.000
 00279,-0.00000138,-0.00000126,0.00000600,-0.00000221,0.00000002,0.0000
 0249,-0.00000083,-0.00000112,0.00000478,-0.00000176,0.00000016,0.00000
 188,-0.00000077,-0.00000111,0.00000344,-0.00000122,0.00000117,0.000000
 76,-0.00000039,-0.00000362,-0.00000107,0.00000092,0.00000034,-0.000001
 36,0.00000054,-0.00000133,0.00000312,-0.00000111,0.00000016,0.00000119
 ,-0.00000049,-0.00000069,0.00000232,-0.00000087,0.00000083,0.00000048,
 -0.00000028,-0.00000241,-0.00000071,0.00000062,0.00000034,-0.00000091,
 0.00000035,-0.00000090,0.00000233,-0.00000085,0.00000002,0.00000097,-0
 .00000039,-0.00000032,0.00000205,-0.00000082,-0.00000002,0.00000084,-0
 .00000034,-0.00000029,0.00000182,-0.00000071,0.,0.00000076,-0.00000030
 ,-0.00000026,0.00000156,-0.00000061,0.00000002,0.00000070,-0.00000027,
 -0.00000027,0.00000131,-0.00000051,0.00000007,0.00000056,-0.00000027,-
 0.00000033,0.00000098,-0.00000038,0.00000042,0.00000002,-0.00000006,-0
 .00000121,-0.00000040,0.00000038,0.00000021,-0.00000034,0.00000013,-0.
 00000049,0.00000076,-0.00000031,0.00000039,-0.00000006,0.00000006,-0.0
 0000100,-0.00000027,0.00000038,0.00000018,-0.00000031,0.00000008,-0.00
 000044,0.00000063,-0.00000031,0.00000040,-0.00000010,0.00000012,-0.000
 00101,-0.00000035,0.00000056,-0.00000015,-0.00000020,0.00000017,-0.000
 00059,-0.00000033,0.00000044,-0.00000017,-0.00000012,0.00000018,-0.000
 00052,-0.00000026,0.00000042,-0.00000014,-0.00000010,0.00000014,-0.000
 00048,-0.00000025,0.00000037,-0.00000015,-0.00000013,0.00000011,-0.000
 00043,-0.00000025,0.00000035,-0.00000013,-0.00000013,0.00000009,-0.000
 00040,-0.00000026,0.00000031,-0.00000010,-0.00000013,0.00000005,-0.000
 00024,-0.00000026,0.00000021,0.,-0.00000016,0.00000007,0.00000008,0.00
 000013,-0.00000012,0.28794686,0.12649806,-0.12524851,0.02343991,-0.014
 29666,0.01015461,-0.00073524,-0.00148982,0.00034522,0.00480422,-0.0003
 1080,0.00079738,-0.00019654,-0.00031881,-0.00036145,-0.00040740,0.0000
 3847,0.00005976,-0.00005933,-0.00004805,0.00001684,0.00012494,0.000030
 98,0.00001993,-0.00000824,-0.00002916,-0.00001879,-0.00001626,0.000016
 94,0.00000792,-0.00000707,-0.00001358,-0.00000351,0.00000834,0.0000098
 2,0.00000499,-0.00000309,-0.00000829,-0.00000401,0.00000119,0.00000563
 ,0.00000314,-0.00000219,-0.00000479,-0.00000253,0.00000185,0.00000252,
 0.00000028,-0.00000050,-0.00000062,0.00000355,-0.00000151,0.00000097,-
 0.00000124,0.00000033,-0.00000208,-0.00000176,0.00000094,0.00000143,0.
 00000126,-0.00000074,-0.00000132,-0.00000119,0.00000062,0.00000045,-0.
 00000005,-0.00000008,0.00000014,0.00000136,-0.00000062,0.00000034,-0.0
 0000019,0.00000004,-0.00000077,-0.00000095,0.00000048,0.00000058,0.000
 00060,-0.00000031,-0.00000060,-0.00000062,0.00000031,0.00000038,0.0000
 0053,-0.00000030,-0.00000033,-0.00000053,0.00000029,0.00000024,0.00000
 047,-0.00000024,-0.00000012,-0.00000046,0.00000019,0.00000006,0.000000
 42,-0.00000015,0.00000003,-0.00000040,0.00000013,-0.00000011,0.0000003
 7,-0.00000014,0.00000003,-0.00000038,0.00000019,-0.00000034,0.,0.00000
 006,0.00000032,0.00000012,-0.00000010,-0.00000007,0.00000004,-0.000000
 02,0.00000007,-0.00000024,0.00000011,-0.00000023,-0.00000006,0.0000000
 9,0.00000023,0.,-0.00000004,-0.00000006,0.00000013,-0.00000010,0.00000
 008,-0.00000014,0.00000010,-0.00000024,-0.00000010,0.00000015,0.000000
 18,-0.00000002,0.,-0.00000012,0.00000008,0.,0.00000021,-0.00000008,0.0
 0000004,-0.00000012,0.00000007,-0.00000005,0.00000014,0.00000006,0.000
 00002,0.,-0.00000003,-0.00000002,0.00000003,0.00000010,-0.00000002,-0.
 00000002,-0.00000008,0.00000002,0.00000005,0.00000008,0.,-0.00000002,-
 0.00000008,0.,0.00000002,0.00000005,0.,-0.00000006,-0.00000012,-0.0000
 0004,0.00000017,-0.00000007,0.00000002,-0.00000007,0.00000005,-0.00000
 004,0.02282994,-0.00864995,0.00175566,-0.00014207,0.00010024,-0.002869
 44,-0.00039407,0.00028024,-0.00018450,0.00008577,0.00001396,0.00004345
 ,-0.00000513,0.00001342,0.00000538,-0.00000264,-0.00001176,-0.00002529
 ,-0.00000200,0.00000375,-0.00000103,0.00000155,0.00000372,0.00000756,-
 0.00000110,0.00000212,-0.00000001,0.00000010,-0.00000004,-0.00000094,-
 0.00000053,0.00000116,-0.00000019,0.00000014,0.00000036,0.00000038,-0.
 00000032,0.00000076,-0.00000010,0.00000008,0.00000010,0.,-0.00000024,0
 .00000046,-0.00000007,0.00000024,0.00000002,0.00000007,-0.00000041,0.0
 0000007,0.00000009,0.00000027,-0.00000003,0.00000005,-0.00000027,0.000
 00038,-0.00000008,0.00000005,0.00000005,0.00000002,-0.00000010,0.00000
 019,-0.00000003,0.00000010,0.,0.00000001,-0.00000020,0.00000002,0.0000
 0004,0.00000013,0.,0.00000002,-0.00000012,0.00000020,-0.00000006,0.000
 00002,0.00000002,0.,-0.00000003,0.00000011,-0.00000003,0.,0.00000002,0
 .,-0.00000004,0.00000008,-0.00000003,-0.00000002,0.,0.,-0.00000004,0.0
 0000007,-0.00000003,-0.00000001,-0.00000001,0.,-0.00000003,0.00000006,
 -0.00000002,0.,-0.00000003,0.,-0.00000002,0.00000004,-0.00000003,0.000
 00005,0.00000005,-0.00000003,-0.00000001,0.00000008,-0.00000003,0.0000
 0002,-0.00000002,0.,-0.00000005,0.00000007,-0.00000003,0.00000003,0.00
 000003,-0.00000002,-0.00000002,0.00000003,-0.00000003,0.00000002,0.,0.
 ,-0.00000005,0.00000006,-0.00000004,0.00000002,0.00000003,-0.00000004,
 0.,0.00000002,-0.00000003,-0.00000001,0.,-0.00000002,-0.00000004,-0.00
 000004,0.00000001,0.,0.,-0.00000002,-0.00000005,-0.00000005,0.,0.,0.,-
 0.00000001,-0.00000004,-0.00000003,0.,0.,0.00000001,0.,-0.00000002,-0.
 00000001,-0.00000002,0.,0.00000001,0.00000002,0.,0.00000002,-0.0000000
 2,0.,0.00000003,0.00000004,-0.00000003,0.00000005,0.,0.00000002,0.0000
 0005,0.,-0.00000014,0.00000005,0.,-0.13245001,0.12246795,-0.02308495,0
 .02393871,-0.03819882,0.00865688,-0.00437885,0.00493726,0.00219921,0.0
 0503811,0.00927348,0.00024476,-0.00036280,0.00034738,-0.00002099,-0.00
 039912,-0.00128036,-0.00001043,-0.00006720,-0.00004459,0.00005515,0.00
 012534,0.00024882,-0.00000769,-0.00000809,0.00001319,0.00000212,-0.000
 01547,-0.00006086,-0.00000524,-0.00000727,-0.00000077,0.00000555,0.000
 00960,0.00000817,-0.00000237,-0.00000363,0.00000201,0.00000172,0.00000
 250,-0.00000478,-0.00000103,-0.00000285,0.00000075,0.00000092,0.000003
 06,-0.00000093,0.00000120,0.00000108,-0.00000088,-0.00000194,-0.000003
 05,0.00000120,-0.00000013,-0.00000169,0.00000055,0.00000056,0.00000293
 ,-0.00000148,-0.00000011,-0.00000132,0.00000045,0.00000011,0.00000167,
 -0.00000081,0.00000101,0.00000082,-0.00000061,-0.00000136,-0.00000177,
 0.00000084,-0.00000010,-0.00000123,0.00000045,0.00000031,0.00000200,-0
 .00000097,-0.00000011,-0.00000086,0.00000033,0.00000009,0.00000119,-0.
 00000058,-0.00000001,-0.00000084,0.00000029,0.,0.00000105,-0.00000048,
 0.00000007,-0.00000073,0.00000025,-0.00000011,0.00000091,-0.00000041,0
 .00000016,-0.00000063,0.00000022,-0.00000017,0.00000077,-0.00000035,0.
 00000023,-0.00000055,0.00000017,-0.00000021,0.00000068,-0.00000028,0.0
 0000068,0.00000036,-0.00000028,-0.00000072,-0.00000052,0.00000032,0.00
 000011,-0.00000063,0.00000029,-0.00000009,0.00000076,-0.00000042,0.000
 00045,0.00000028,-0.00000029,-0.00000054,-0.00000044,0.00000039,0.0000
 0005,-0.00000041,0.00000028,0.,0.00000058,-0.00000046,0.00000027,0.000
 00020,-0.00000025,-0.00000041,-0.00000041,0.00000044,0.00000019,0.0000
 0021,-0.00000021,-0.00000031,-0.00000029,0.00000028,0.00000020,0.00000
 019,-0.00000022,-0.00000029,-0.00000025,0.00000028,0.00000019,0.000000
 16,-0.00000020,-0.00000028,-0.00000022,0.00000024,0.00000021,0.0000001
 2,-0.00000017,-0.00000030,-0.00000017,0.00000022,0.00000023,0.00000010
 ,-0.00000015,-0.00000029,-0.00000015,0.00000018,0.00000024,0.00000006,
 -0.00000015,-0.00000035,-0.00000007,0.00000014,0.00000025,-0.00000013,
 0.,-0.00956580,0.00483886,0.00146993,-0.00088467,-0.00283316,-0.005658
 57,0.00010803,-0.00024009,-0.00019862,-0.00001843,0.00006094,0.0001221
 0,0.00000335,0.00000275,0.00002347,-0.00000788,-0.00002520,-0.00006276
 ,0.00000097,-0.00000249,0.00000157,0.00000201,0.00000730,0.00001940,0.
 00000085,-0.00000103,0.00000214,-0.00000031,-0.00000123,-0.00000168,0.
 00000044,-0.00000094,0.00000095,0.00000011,0.00000012,0.00000133,0.000
 00032,-0.00000069,0.00000072,-0.00000003,-0.00000020,0.00000028,0.0000
 0026,-0.00000048,0.00000045,-0.00000020,0.00000002,0.00000032,0.000000
 63,0.00000018,0.00000002,-0.00000012,0.00000026,0.00000011,0.00000029,
 -0.00000046,0.00000032,-0.00000003,-0.00000011,0.00000018,0.00000014,-
 0.00000031,0.00000023,-0.00000013,-0.00000001,0.00000013,0.00000039,0.
 00000012,-0.00000002,-0.00000008,0.00000016,0.00000004,0.00000016,-0.0
 0000034,0.00000020,0.,-0.00000009,0.00000011,0.00000006,-0.00000027,0.
 00000017,0.00000001,-0.00000008,0.00000009,0.00000006,-0.00000023,0.00
 000014,0.00000001,-0.00000006,0.00000007,0.00000005,-0.00000019,0.0000
 0011,0.,-0.00000006,0.00000006,0.00000005,-0.00000016,0.00000010,0.,-0
 .00000004,0.00000005,0.00000005,-0.00000012,0.00000007,-0.00000007,-0.
 00000002,0.00000004,0.00000015,0.00000003,-0.00000002,-0.00000003,0.00
 000006,0.,0.00000008,-0.00000011,0.00000006,-0.00000006,0.,0.00000001,
 0.00000014,0.00000003,-0.00000003,-0.00000003,0.00000005,0.,0.00000008
 ,-0.00000009,0.00000006,-0.00000006,0.00000002,0.,0.00000014,0.0000000
 4,-0.00000006,0.00000002,0.00000003,-0.00000001,0.00000010,0.00000006,
 -0.00000006,0.00000002,0.00000002,-0.00000001,0.00000008,0.00000005,-0
 .00000005,0.00000003,0.00000002,-0.00000001,0.00000007,0.00000004,-0.0
 0000005,0.00000003,0.00000003,0.,0.00000006,0.00000004,-0.00000004,0.0
 0000003,0.00000003,0.,0.00000005,0.00000003,-0.00000003,0.00000003,0.0
 0000003,0.,0.00000005,0.00000003,-0.00000002,0.00000002,0.00000003,0.,
 0.00000004,-0.00000002,0.00000002,0.02232586,-0.02567484,0.02903892\\-
 0.00000023,-0.00000012,0.00000011,0.00000028,-0.00000009,0.00000001,-0
 .00000009,0.00000008,0.,0.,-0.00000009,0.00000001,0.00000009,0.0000000
 5,-0.00000002,-0.00000020,-0.00000010,0.00000002,0.00000035,0.00000004
 ,-0.00000007,-0.00000049,-0.00000012,0.00000004,0.00000059,0.00000003,
 -0.00000011,-0.00000078,-0.00000014,0.00000007,0.00000083,0.00000002,-
 0.00000015,-0.00000106,-0.00000015,0.00000009,0.00000100,-0.00000002,-
 0.00000017,-0.00000125,-0.00000011,0.00000020,0.00000134,0.00000001,-0
 .00000036,-0.00000135,-0.00000006,-0.00000007,0.00000113,-0.00000108,0
 .00000032,-0.00000134,0.00000122,-0.00000046,0.00000173,-0.00000011,-0
 .00000014,-0.00000170,-0.00000021,0.00000015,0.00000168,0.00000004,-0.
 00000020,-0.00000128,-0.00000026,-0.00000022,0.00000113,-0.00000091,0.
 00000050,-0.00000099,0.00000108,-0.00000052,0.00000119,-0.00000004,0.0
 0000003,-0.00000121,-0.00000023,0.00000001,0.00000073,0.00000003,0.000
 00016,-0.00000057,-0.00000007,-0.00000004,0.00000033,-0.00000009,-0.00
 000004,-0.00000019,-0.00000004,-0.00000005,-0.00000007,-0.00000015,0.,
 0.00000033,-0.00000002,-0.00000011,-0.00000054,-0.00000020,0.00000010,
 0.00000104,0.,-0.00000019,-0.00000110,0.00000007,0.00000016,0.00000157
 ,-0.00000069,0.00000004,-0.00000107,0.00000021,0.00000003,0.00000101,0
 .00000021,-0.00000050,-0.00000066,0.00000115,-0.00000021,0.00000082,-0
 .00000126,0.00000051,-0.00000168,-0.00000007,0.00000042,0.00000093,0.0
 0000017,-0.00000021,-0.00000087,0.00000071,-0.00000068,0.00000080,-0.0
 0000017,0.00000031,-0.00000125,0.00000043,-0.00000047,0.00000083,-0.00
 000065,0.00000036,-0.00000063,0.00000031,-0.00000040,0.00000043,-0.000
 00049,0.00000033,-0.00000030,0.00000010,-0.00000004,0.00000023,-0.0000
 0020,0.00000012,-0.00000018,0.00000001,0.00000007,0.00000012,0.,0.0000
 0006,-0.00000017,0.00000006,0.00000005,0.00000014,0.00000003,0.0000000
 7,-0.00000010,0.,0.00000011,0.00000028,0.00000002,0.00000007,-0.000000
 37,0.00000031,-0.00000002,0.00000008,-0.00000003,0.00000018,-0.0000000
 1,0.00000002,0.00000007,0.00000004,-0.00000010,0.00000005,-0.00000010,
 0.00000013,0.00000005,0.00000011,-0.00000013,0.00000007,-0.00000011,0.
 00000014,0.00000005,0.00000013,-0.00000012,0.00000007,-0.00000014,0.00
 000015,0.00000005,0.00000016,-0.00000011,0.00000006,-0.00000015,0.0000
 0015,0.00000004,0.00000019,-0.00000007,0.00000004,-0.00000018,0.000000
 13,0.00000005,0.00000021,-0.00000003,0.00000001,-0.00000020,0.00000008
 ,0.00000007,0.00000023,0.00000002,-0.00000002,-0.00000020,-0.00000017,
 -0.00000002,0.00000016,0.00000010,0.00000004,0.,0.00000029,0.00000017,
 -0.00000006,-0.00000009,0.00000027,-0.00000019,-0.00000005,0.00000015,
 0.00000026,-0.00000009,-0.00000037,-0.00000026,-0.00000006,0.,0.000000
 10,0.,0.00000008,-0.00000006,0.00000024,0.00000048,0.00000002,0.000000
 05,0.00000015,-0.00000013,0.00000006,-0.00000001,0.00000018,-0.0000003
 7,-0.00000059,-0.00000019,0.00000017,0.00000001,0.00000020,-0.00000014
 ,0.00000008,-0.00000015,0.00000017,0.,0.00000018,-0.00000014,0.0000000
 5,-0.00000015,0.00000017,-0.00000002,0.00000016,-0.00000016,0.00000003
 ,-0.00000014,0.00000021,-0.00000006,0.00000011,-0.00000018,0.,-0.00000
 037,0.00000015,-0.00000016,-0.00000005,-0.00000008,-0.00000013,-0.0000
 0040,0.00000048,0.,0.00000018,-0.00000012,0.00000008,-0.00000063,-0.00
 000016,0.00000008,0.00000064,-0.00000005,-0.00000055,-0.00000021,0.000
 00049,-0.00000026,0.00000036,-0.00000055,0.00000026,-0.00000025,-0.000
 00042,-0.00000020,0.00000053,0.00000020,-0.00000019,0.00000007,0.00000
 011,-0.00000010,0.00000030,0.00000029,0.00000044,-0.00000005,0.0000001
 2,-0.00000003,0.00000019,0.00000004,-0.00000006,-0.00000012,0.00000011
 ,0.,0.00000023,0.00000007,-0.00000007,-0.00000015,0.00000009,0.0000000
 5,0.00000024,0.00000009,-0.00000006,-0.00000015,0.00000007,0.00000008,
 0.00000023,0.00000009,-0.00000004,-0.00000016,0.00000006,0.00000011,0.
 00000021,0.00000010,-0.00000004,-0.00000008,0.00000002,0.00000014,0.00
 000006,0.00000006,0.00000009,0.00000012,0.00000004,0.00000011,-0.00000
 006,-0.00000002,0.00000005\\\@


 WHEN A MATHEMATICIAN ENGAGED IN INVESTIGATING
 PHYSICAL ACTIONS AND RESULTS HAS ARRIVED AT HIS
 CONCLUSIONS, MAY THEY NOT BE EXPRESSED IN COMMON
 LANGUAGE AS FULLY, CLEARLY, AND DEFINITELY AS IN
 MATHEMATICAL FORMULAE?
           - LETTER FROM M. FARADAY TO J.C. MAXWELL, 1857.
 Job cpu time:       0 days  7 hours 19 minutes 11.3 seconds.
 Elapsed time:       0 days  7 hours 19 minutes 22.2 seconds.
 File lengths (MBytes):  RWF=  14914 Int=      0 D2E=      0 Chk=    114 Scr=      1
 Normal termination of Gaussian 16 at Tue Oct 31 11:12:17 2023.
