 Entering Gaussian System, Link 0=g16
 Input=./com/30.com
 Output=./log/30.log
 Initial command:
 /home/shohei/gaussian/g16/l1.exe "/home/shohei/gaussian/scratch/Gau-26666.inp" -scrdir="/home/shohei/gaussian/scratch/"
 Entering Link 1 = /home/shohei/gaussian/g16/l1.exe PID=     26668.
  
 Copyright (c) 1988-2017, Gaussian, Inc.  All Rights Reserved.
  
 This is part of the Gaussian(R) 16 program.  It is based on
 the Gaussian(R) 09 system (copyright 2009, Gaussian, Inc.),
 the Gaussian(R) 03 system (copyright 2003, Gaussian, Inc.),
 the Gaussian(R) 98 system (copyright 1998, Gaussian, Inc.),
 the Gaussian(R) 94 system (copyright 1995, Gaussian, Inc.),
 the Gaussian 92(TM) system (copyright 1992, Gaussian, Inc.),
 the Gaussian 90(TM) system (copyright 1990, Gaussian, Inc.),
 the Gaussian 88(TM) system (copyright 1988, Gaussian, Inc.),
 the Gaussian 86(TM) system (copyright 1986, Carnegie Mellon
 University), and the Gaussian 82(TM) system (copyright 1983,
 Carnegie Mellon University). Gaussian is a federally registered
 trademark of Gaussian, Inc.
  
 This software contains proprietary and confidential information,
 including trade secrets, belonging to Gaussian, Inc.
  
 This software is provided under written license and may be
 used, copied, transmitted, or stored only in accord with that
 written license.
  
 The following legend is applicable only to US Government
 contracts under FAR:
  
                    RESTRICTED RIGHTS LEGEND
  
 Use, reproduction and disclosure by the US Government is
 subject to restrictions as set forth in subparagraphs (a)
 and (c) of the Commercial Computer Software - Restricted
 Rights clause in FAR 52.227-19.
  
 Gaussian, Inc.
 340 Quinnipiac St., Bldg. 40, Wallingford CT 06492
  
  
 ---------------------------------------------------------------
 Warning -- This program may not be used in any manner that
 competes with the business of Gaussian, Inc. or will provide
 assistance to any competitor of Gaussian, Inc.  The licensee
 of this program is prohibited from giving any competitor of
 Gaussian, Inc. access to this program.  By using this program,
 the user acknowledges that Gaussian, Inc. is engaged in the
 business of creating and licensing software in the field of
 computational chemistry and represents and warrants to the
 licensee that it is not a competitor of Gaussian, Inc. and that
 it will not use this program in any manner prohibited above.
 ---------------------------------------------------------------
  

 Cite this work as:
 Gaussian 16, Revision B.01,
 M. J. Frisch, G. W. Trucks, H. B. Schlegel, G. E. Scuseria, 
 M. A. Robb, J. R. Cheeseman, G. Scalmani, V. Barone, 
 G. A. Petersson, H. Nakatsuji, X. Li, M. Caricato, A. V. Marenich, 
 J. Bloino, B. G. Janesko, R. Gomperts, B. Mennucci, H. P. Hratchian, 
 J. V. Ortiz, A. F. Izmaylov, J. L. Sonnenberg, D. Williams-Young, 
 F. Ding, F. Lipparini, F. Egidi, J. Goings, B. Peng, A. Petrone, 
 T. Henderson, D. Ranasinghe, V. G. Zakrzewski, J. Gao, N. Rega, 
 G. Zheng, W. Liang, M. Hada, M. Ehara, K. Toyota, R. Fukuda, 
 J. Hasegawa, M. Ishida, T. Nakajima, Y. Honda, O. Kitao, H. Nakai, 
 T. Vreven, K. Throssell, J. A. Montgomery, Jr., J. E. Peralta, 
 F. Ogliaro, M. J. Bearpark, J. J. Heyd, E. N. Brothers, K. N. Kudin, 
 V. N. Staroverov, T. A. Keith, R. Kobayashi, J. Normand, 
 K. Raghavachari, A. P. Rendell, J. C. Burant, S. S. Iyengar, 
 J. Tomasi, M. Cossi, J. M. Millam, M. Klene, C. Adamo, R. Cammi, 
 J. W. Ochterski, R. L. Martin, K. Morokuma, O. Farkas, 
 J. B. Foresman, and D. J. Fox, Gaussian, Inc., Wallingford CT, 2016.
 
 ******************************************
 Gaussian 16:  EM64L-G16RevB.01 20-Dec-2017
                31-Oct-2023 
 ******************************************
 %chk=./chk/30.chk
 ---------------------------
 # B3LYP/6-31G(d,p) OPT FREQ
 ---------------------------
 1/18=20,19=15,26=3,38=1/1,3;
 2/9=110,12=2,17=6,18=5,40=1/2;
 3/5=1,6=6,7=101,11=2,25=1,30=1,71=1,74=-5/1,2,3;
 4//1;
 5/5=2,38=5/2;
 6/7=2,8=2,9=2,10=2,28=1/1;
 7//1,2,3,16;
 1/18=20,19=15,26=3/3(2);
 2/9=110/2;
 99//99;
 2/9=110/2;
 3/5=1,6=6,7=101,11=2,25=1,30=1,71=1,74=-5/1,2,3;
 4/5=5,16=3,69=1/1;
 5/5=2,38=5/2;
 7//1,2,3,16;
 1/18=20,19=15,26=3/3(-5);
 2/9=110/2;
 6/7=2,8=2,9=2,10=2,19=2,28=1/1;
 99/9=1/99;
 ------
 30poly
 ------
 Symbolic Z-matrix:
 Charge =  0 Multiplicity = 1
 C                    -39.43044   2.97261   0.50681 
 C                    -38.35439   3.69582   0.1891 
 C                    -36.99107   3.17628   0.41888 
 C                    -35.91409   3.9011    0.08983 
 C                    -34.55082   3.37846   0.31412 
 C                    -33.47353   4.09337  -0.03453 
 C                    -32.11159   3.56419   0.18029 
 C                    -31.03379   4.2638   -0.19607 
 C                    -29.6741   3.72558   0.00825 
 C                    -28.59522   4.40676  -0.39718 
 C                    -27.23889   3.85857  -0.1992 
 C                    -26.15731   4.52181  -0.62618 
 C                    -24.80544   3.96478  -0.42454 
 C                    -22.37178   4.05152  -0.63686 
 C                    -23.71802   4.61452  -0.85701 
 C                    -21.27426   4.69519  -1.05304 
 C                    -19.93372   4.13098  -0.79798 
 C                    -18.82536   4.78739  -1.18078 
 C                    -17.43445   4.32413  -0.93205 
 C                    -17.11057   3.16993  -0.31197 
 C                    -15.72517   2.72496  -0.01595 
 C                    -14.61074   3.4162   -0.30854 
 C                    -13.2861   2.89461   0.08441 
 C                    -12.16949   3.59676  -0.17213 
 C                    -10.79563   3.18299   0.21389 
 C                    -10.49551   2.05379   0.88908 
 C                    -9.12501   1.64563   1.2891 
 C                    -8.00626   2.34516   1.03711 
 C                    -6.6929    1.82963   1.46756 
 C                    -5.56552   2.48648   1.1715 
 C                    -4.2554    1.92868   1.5522 
 C                    -3.11828   2.50634   1.14975 
 C                    -1.82105   1.87444   1.44993 
 C                    -0.69189   2.32712   0.895 
 C                     0.57219   1.59609   1.09487 
 C                     1.65486   1.89174   0.36796 
 C                     2.864     1.05266   0.46451 
 C                     3.85744   1.19438  -0.42678 
 C                     5.04698   0.31137  -0.50839 
 C                     5.36689  -0.63884   0.39572 
 C                     6.50633  -1.58354   0.2547 
 C                     7.21014  -1.74766  -0.88352 
 C                     8.31259  -2.72076  -1.07367 
 C                     8.86854  -3.46869  -0.09877 
 C                     9.98343  -4.42821  -0.32114 
 C                     10.41481  -4.82325  -1.53759 
 C                     11.558   -5.73675  -1.78064 
 C                     12.40872  -6.17176  -0.83742 
 C                     13.57231  -6.99676  -1.21685 
 C                     14.53572  -7.27005  -0.32971 
 C                     15.75199  -7.99525  -0.74403 
 C                     16.7997  -8.09408   0.0822 
 C                     18.05751  -8.72229  -0.3663 
 C                     19.15531  -8.66689   0.3973 
 C                     20.43959  -9.21646  -0.07984 
 C                     21.56035  -9.04815   0.63297 
 C                     22.85886  -9.54616   0.13674 
 C                     23.9877  -9.31261   0.81829 
 C                     25.29174  -9.78636   0.31292 
 C                     26.42134  -9.53138   0.97688 
 H                    -40.42363   3.37192   0.329 
 H                    -39.33334   1.9827    0.94295 
 H                    -38.49239   4.68167  -0.24688 
 H                    -36.86509   2.18936   0.85857 
 H                    -36.04014   4.88653  -0.35306 
 H                    -34.42491   2.39573   0.76314 
 H                    -33.59833   5.07373  -0.48885 
 H                    -31.9872   2.5879    0.64363 
 H                    -31.15664   5.2371   -0.66582 
 H                    -29.55235   2.75729   0.48884 
 H                    -28.71469   5.37221  -0.88368 
 H                    -27.12171   2.89841   0.29861 
 H                    -26.27097   5.48027  -1.12761 
 H                    -24.69595   3.0111    0.0874 
 H                    -23.82224   5.56853  -1.36881 
 H                    -22.27468   3.1012   -0.1162 
 H                    -21.36637   5.64825  -1.5689 
 H                    -19.87584   3.18409  -0.27636 
 H                    -18.93247   5.74023  -1.69245 
 H                    -16.65968   4.99758  -1.27321 
 H                    -17.88317   2.49499   0.02938 
 H                    -15.62921   1.77252   0.49915 
 H                    -14.65584   4.3738   -0.81237 
 H                    -13.24747   1.94305   0.59954 
 H                    -12.25713   4.54846  -0.68968 
 H                    -10.01338   3.87037  -0.07836 
 H                    -11.27678   1.36689   1.18412 
 H                    -9.04237   0.70203   1.82246 
 H                    -8.03516   3.28748   0.50429 
 H                    -6.64249   0.88709   2.00865 
 H                    -5.60899   3.41804   0.61157 
 H                    -4.2185    1.00435   2.12502 
 H                    -3.15008   3.41024   0.54541 
 H                    -1.79616   0.98379   2.07452 
 H                    -0.71803   3.18823   0.23079 
 H                     0.59658   0.75308   1.78236 
 H                     1.61664   2.70048  -0.35868 
 H                     2.88808   0.2717    1.215 
 H                     3.76636   1.95614  -1.19691 
 H                     5.66029   0.46344  -1.38604 
 H                     4.77398  -0.76277   1.29249 
 H                     6.71825  -2.19694   1.12116 
 H                     6.96223  -1.17414  -1.76632 
 H                     8.6795   -2.78595  -2.0888 
 H                     8.53414  -3.36628   0.92573 
 H                     10.44799  -4.8174    0.57573 
 H                     9.92516  -4.47002  -2.43478 
 H                     11.73457  -6.01958  -2.81526 
 H                     12.29848  -5.87839   0.19984 
 H                     13.67682  -7.33076  -2.24692 
 H                     14.45466  -6.89904   0.68963 
 H                     15.81771  -8.39694  -1.75283 
 H                     16.74725  -7.65523   1.07621 
 H                     18.1027  -9.1878   -1.34836 
 H                     19.11532  -8.17127   1.36484 
 H                     20.47772  -9.73153  -1.03708 
 H                     21.5228  -8.51305   1.57933 
 H                     22.89657  -10.09254  -0.80297 
 H                     23.95001  -8.75593   1.75211 
 H                     25.3417  -10.34731  -0.61645 
 H                     26.41191  -8.97008   1.90669 
 H                     27.37053  -9.88439   0.58734 
 

 GradGradGradGradGradGradGradGradGradGradGradGradGradGradGradGradGradGrad
 Berny optimization.
 Initialization pass.
                           ----------------------------
                           !    Initial Parameters    !
                           ! (Angstroms and Degrees)  !
 --------------------------                            --------------------------
 ! Name  Definition              Value          Derivative Info.                !
 --------------------------------------------------------------------------------
 ! R1    R(1,2)                  1.3349         estimate D2E/DX2                !
 ! R2    R(1,61)                 1.0851         estimate D2E/DX2                !
 ! R3    R(1,62)                 1.0861         estimate D2E/DX2                !
 ! R4    R(2,3)                  1.4769         estimate D2E/DX2                !
 ! R5    R(2,63)                 1.0867         estimate D2E/DX2                !
 ! R6    R(3,4)                  1.3392         estimate D2E/DX2                !
 ! R7    R(3,64)                 1.0878         estimate D2E/DX2                !
 ! R8    R(4,5)                  1.4771         estimate D2E/DX2                !
 ! R9    R(4,65)                 1.0877         estimate D2E/DX2                !
 ! R10   R(5,6)                  1.3391         estimate D2E/DX2                !
 ! R11   R(5,66)                 1.0878         estimate D2E/DX2                !
 ! R12   R(6,7)                  1.4768         estimate D2E/DX2                !
 ! R13   R(6,67)                 1.0877         estimate D2E/DX2                !
 ! R14   R(7,8)                  1.3389         estimate D2E/DX2                !
 ! R15   R(7,68)                 1.0878         estimate D2E/DX2                !
 ! R16   R(8,9)                  1.4765         estimate D2E/DX2                !
 ! R17   R(8,69)                 1.0877         estimate D2E/DX2                !
 ! R18   R(9,10)                 1.3388         estimate D2E/DX2                !
 ! R19   R(9,70)                 1.0878         estimate D2E/DX2                !
 ! R20   R(10,11)                1.4763         estimate D2E/DX2                !
 ! R21   R(10,71)                1.0877         estimate D2E/DX2                !
 ! R22   R(11,12)                1.3387         estimate D2E/DX2                !
 ! R23   R(11,72)                1.0879         estimate D2E/DX2                !
 ! R24   R(12,13)                1.476          estimate D2E/DX2                !
 ! R25   R(12,73)                1.0877         estimate D2E/DX2                !
 ! R26   R(13,15)                1.3385         estimate D2E/DX2                !
 ! R27   R(13,74)                1.0879         estimate D2E/DX2                !
 ! R28   R(14,15)                1.4757         estimate D2E/DX2                !
 ! R29   R(14,16)                1.3387         estimate D2E/DX2                !
 ! R30   R(14,76)                1.088          estimate D2E/DX2                !
 ! R31   R(15,75)                1.0876         estimate D2E/DX2                !
 ! R32   R(16,17)                1.4766         estimate D2E/DX2                !
 ! R33   R(16,77)                1.0876         estimate D2E/DX2                !
 ! R34   R(17,18)                1.3438         estimate D2E/DX2                !
 ! R35   R(17,78)                1.0826         estimate D2E/DX2                !
 ! R36   R(18,19)                1.487          estimate D2E/DX2                !
 ! R37   R(18,79)                1.0868         estimate D2E/DX2                !
 ! R38   R(19,20)                1.3497         estimate D2E/DX2                !
 ! R39   R(19,80)                1.0818         estimate D2E/DX2                !
 ! R40   R(20,21)                1.4849         estimate D2E/DX2                !
 ! R41   R(20,81)                1.0812         estimate D2E/DX2                !
 ! R42   R(21,22)                1.3436         estimate D2E/DX2                !
 ! R43   R(21,82)                1.0871         estimate D2E/DX2                !
 ! R44   R(22,23)                1.4769         estimate D2E/DX2                !
 ! R45   R(22,83)                1.083          estimate D2E/DX2                !
 ! R46   R(23,24)                1.3437         estimate D2E/DX2                !
 ! R47   R(23,84)                1.0827         estimate D2E/DX2                !
 ! R48   R(24,25)                1.4858         estimate D2E/DX2                !
 ! R49   R(24,85)                1.0869         estimate D2E/DX2                !
 ! R50   R(25,26)                1.3495         estimate D2E/DX2                !
 ! R51   R(25,86)                1.0816         estimate D2E/DX2                !
 ! R52   R(26,27)                1.4849         estimate D2E/DX2                !
 ! R53   R(26,87)                1.0813         estimate D2E/DX2                !
 ! R54   R(27,28)                1.3433         estimate D2E/DX2                !
 ! R55   R(27,88)                1.0871         estimate D2E/DX2                !
 ! R56   R(28,29)                1.4751         estimate D2E/DX2                !
 ! R57   R(28,89)                1.0829         estimate D2E/DX2                !
 ! R58   R(29,30)                1.3379         estimate D2E/DX2                !
 ! R59   R(29,90)                1.088          estimate D2E/DX2                !
 ! R60   R(30,31)                1.4739         estimate D2E/DX2                !
 ! R61   R(30,91)                1.0878         estimate D2E/DX2                !
 ! R62   R(31,32)                1.3374         estimate D2E/DX2                !
 ! R63   R(31,92)                1.0881         estimate D2E/DX2                !
 ! R64   R(32,33)                1.4738         estimate D2E/DX2                !
 ! R65   R(32,93)                1.0878         estimate D2E/DX2                !
 ! R66   R(33,34)                1.3371         estimate D2E/DX2                !
 ! R67   R(33,94)                1.0881         estimate D2E/DX2                !
 ! R68   R(34,35)                1.4739         estimate D2E/DX2                !
 ! R69   R(34,95)                1.0878         estimate D2E/DX2                !
 ! R70   R(35,36)                1.3371         estimate D2E/DX2                !
 ! R71   R(35,96)                1.0881         estimate D2E/DX2                !
 ! R72   R(36,37)                1.4749         estimate D2E/DX2                !
 ! R73   R(36,97)                1.0879         estimate D2E/DX2                !
 ! R74   R(37,38)                1.3422         estimate D2E/DX2                !
 ! R75   R(37,98)                1.0834         estimate D2E/DX2                !
 ! R76   R(38,39)                1.4837         estimate D2E/DX2                !
 ! R77   R(38,99)                1.0871         estimate D2E/DX2                !
 ! R78   R(39,40)                1.3501         estimate D2E/DX2                !
 ! R79   R(39,100)               1.0815         estimate D2E/DX2                !
 ! R80   R(40,41)                1.4868         estimate D2E/DX2                !
 ! R81   R(40,101)               1.0822         estimate D2E/DX2                !
 ! R82   R(41,42)                1.3483         estimate D2E/DX2                !
 ! R83   R(41,102)               1.0826         estimate D2E/DX2                !
 ! R84   R(42,43)                1.4827         estimate D2E/DX2                !
 ! R85   R(42,103)               1.0815         estimate D2E/DX2                !
 ! R86   R(43,44)                1.3487         estimate D2E/DX2                !
 ! R87   R(43,104)               1.0814         estimate D2E/DX2                !
 ! R88   R(44,45)                1.4877         estimate D2E/DX2                !
 ! R89   R(44,105)               1.0826         estimate D2E/DX2                !
 ! R90   R(45,46)                1.3498         estimate D2E/DX2                !
 ! R91   R(45,106)               1.0824         estimate D2E/DX2                !
 ! R92   R(46,47)                1.4834         estimate D2E/DX2                !
 ! R93   R(46,107)               1.0814         estimate D2E/DX2                !
 ! R94   R(47,48)                1.3426         estimate D2E/DX2                !
 ! R95   R(47,108)               1.087          estimate D2E/DX2                !
 ! R96   R(48,49)                1.476          estimate D2E/DX2                !
 ! R97   R(48,109)               1.0836         estimate D2E/DX2                !
 ! R98   R(49,50)                1.3379         estimate D2E/DX2                !
 ! R99   R(49,110)               1.0879         estimate D2E/DX2                !
 ! R100  R(50,51)                1.4754         estimate D2E/DX2                !
 ! R101  R(50,111)               1.0878         estimate D2E/DX2                !
 ! R102  R(51,52)                1.338          estimate D2E/DX2                !
 ! R103  R(51,112)               1.0878         estimate D2E/DX2                !
 ! R104  R(52,53)                1.4758         estimate D2E/DX2                !
 ! R105  R(52,113)               1.0878         estimate D2E/DX2                !
 ! R106  R(53,54)                1.3384         estimate D2E/DX2                !
 ! R107  R(53,114)               1.0877         estimate D2E/DX2                !
 ! R108  R(54,55)                1.4762         estimate D2E/DX2                !
 ! R109  R(54,115)               1.0878         estimate D2E/DX2                !
 ! R110  R(55,56)                1.3389         estimate D2E/DX2                !
 ! R111  R(55,116)               1.0877         estimate D2E/DX2                !
 ! R112  R(56,57)                1.4766         estimate D2E/DX2                !
 ! R113  R(56,117)               1.0878         estimate D2E/DX2                !
 ! R114  R(57,58)                1.3392         estimate D2E/DX2                !
 ! R115  R(57,118)               1.0877         estimate D2E/DX2                !
 ! R116  R(58,59)                1.4766         estimate D2E/DX2                !
 ! R117  R(58,119)               1.0878         estimate D2E/DX2                !
 ! R118  R(59,60)                1.3349         estimate D2E/DX2                !
 ! R119  R(59,120)               1.0867         estimate D2E/DX2                !
 ! R120  R(60,121)               1.0861         estimate D2E/DX2                !
 ! R121  R(60,122)               1.085          estimate D2E/DX2                !
 ! A1    A(2,1,61)             119.9635         estimate D2E/DX2                !
 ! A2    A(2,1,62)             121.1532         estimate D2E/DX2                !
 ! A3    A(61,1,62)            118.8833         estimate D2E/DX2                !
 ! A4    A(1,2,3)              121.0965         estimate D2E/DX2                !
 ! A5    A(1,2,63)             118.9868         estimate D2E/DX2                !
 ! A6    A(3,2,63)             119.9166         estimate D2E/DX2                !
 ! A7    A(2,3,4)              120.9105         estimate D2E/DX2                !
 ! A8    A(2,3,64)             119.2721         estimate D2E/DX2                !
 ! A9    A(4,3,64)             119.817          estimate D2E/DX2                !
 ! A10   A(3,4,5)              120.8892         estimate D2E/DX2                !
 ! A11   A(3,4,65)             119.8139         estimate D2E/DX2                !
 ! A12   A(5,4,65)             119.2962         estimate D2E/DX2                !
 ! A13   A(4,5,6)              120.933          estimate D2E/DX2                !
 ! A14   A(4,5,66)             119.2856         estimate D2E/DX2                !
 ! A15   A(6,5,66)             119.7802         estimate D2E/DX2                !
 ! A16   A(5,6,7)              120.8457         estimate D2E/DX2                !
 ! A17   A(5,6,67)             119.8433         estimate D2E/DX2                !
 ! A18   A(7,6,67)             119.3095         estimate D2E/DX2                !
 ! A19   A(6,7,8)              120.946          estimate D2E/DX2                !
 ! A20   A(6,7,68)             119.2748         estimate D2E/DX2                !
 ! A21   A(8,7,68)             119.7772         estimate D2E/DX2                !
 ! A22   A(7,8,9)              120.7908         estimate D2E/DX2                !
 ! A23   A(7,8,69)             119.8698         estimate D2E/DX2                !
 ! A24   A(9,8,69)             119.3375         estimate D2E/DX2                !
 ! A25   A(8,9,10)             120.9785         estimate D2E/DX2                !
 ! A26   A(8,9,70)             119.252          estimate D2E/DX2                !
 ! A27   A(10,9,70)            119.7678         estimate D2E/DX2                !
 ! A28   A(9,10,11)            120.7203         estimate D2E/DX2                !
 ! A29   A(9,10,71)            119.9042         estimate D2E/DX2                !
 ! A30   A(11,10,71)           119.3744         estimate D2E/DX2                !
 ! A31   A(10,11,12)           121.0354         estimate D2E/DX2                !
 ! A32   A(10,11,72)           119.2145         estimate D2E/DX2                !
 ! A33   A(12,11,72)           119.7496         estimate D2E/DX2                !
 ! A34   A(11,12,13)           120.6283         estimate D2E/DX2                !
 ! A35   A(11,12,73)           119.948          estimate D2E/DX2                !
 ! A36   A(13,12,73)           119.4237         estimate D2E/DX2                !
 ! A37   A(12,13,15)           121.1144         estimate D2E/DX2                !
 ! A38   A(12,13,74)           119.163          estimate D2E/DX2                !
 ! A39   A(15,13,74)           119.7223         estimate D2E/DX2                !
 ! A40   A(15,14,16)           121.2048         estimate D2E/DX2                !
 ! A41   A(15,14,76)           119.0818         estimate D2E/DX2                !
 ! A42   A(16,14,76)           119.7097         estimate D2E/DX2                !
 ! A43   A(13,15,14)           120.512          estimate D2E/DX2                !
 ! A44   A(13,15,75)           119.9983         estimate D2E/DX2                !
 ! A45   A(14,15,75)           119.4882         estimate D2E/DX2                !
 ! A46   A(14,16,17)           120.4559         estimate D2E/DX2                !
 ! A47   A(14,16,77)           119.9573         estimate D2E/DX2                !
 ! A48   A(17,16,77)           119.5796         estimate D2E/DX2                !
 ! A49   A(16,17,18)           120.8589         estimate D2E/DX2                !
 ! A50   A(16,17,78)           117.772          estimate D2E/DX2                !
 ! A51   A(18,17,78)           121.3578         estimate D2E/DX2                !
 ! A52   A(17,18,19)           124.867          estimate D2E/DX2                !
 ! A53   A(17,18,79)           118.7555         estimate D2E/DX2                !
 ! A54   A(19,18,79)           116.3635         estimate D2E/DX2                !
 ! A55   A(18,19,20)           124.5931         estimate D2E/DX2                !
 ! A56   A(18,19,80)           115.0394         estimate D2E/DX2                !
 ! A57   A(20,19,80)           120.3589         estimate D2E/DX2                !
 ! A58   A(19,20,21)           124.872          estimate D2E/DX2                !
 ! A59   A(19,20,81)           120.4919         estimate D2E/DX2                !
 ! A60   A(21,20,81)           114.6261         estimate D2E/DX2                !
 ! A61   A(20,21,22)           125.188          estimate D2E/DX2                !
 ! A62   A(20,21,82)           116.0643         estimate D2E/DX2                !
 ! A63   A(22,21,82)           118.7316         estimate D2E/DX2                !
 ! A64   A(21,22,23)           120.2845         estimate D2E/DX2                !
 ! A65   A(21,22,83)           121.4426         estimate D2E/DX2                !
 ! A66   A(23,22,83)           118.2563         estimate D2E/DX2                !
 ! A67   A(22,23,24)           120.6625         estimate D2E/DX2                !
 ! A68   A(22,23,84)           117.968          estimate D2E/DX2                !
 ! A69   A(24,23,84)           121.3592         estimate D2E/DX2                !
 ! A70   A(23,24,25)           124.9761         estimate D2E/DX2                !
 ! A71   A(23,24,85)           118.7801         estimate D2E/DX2                !
 ! A72   A(25,24,85)           116.2393         estimate D2E/DX2                !
 ! A73   A(24,25,26)           124.6564         estimate D2E/DX2                !
 ! A74   A(24,25,86)           114.9332         estimate D2E/DX2                !
 ! A75   A(26,25,86)           120.4072         estimate D2E/DX2                !
 ! A76   A(25,26,27)           124.7548         estimate D2E/DX2                !
 ! A77   A(25,26,87)           120.4893         estimate D2E/DX2                !
 ! A78   A(27,26,87)           114.7557         estimate D2E/DX2                !
 ! A79   A(26,27,28)           125.1005         estimate D2E/DX2                !
 ! A80   A(26,27,88)           116.164          estimate D2E/DX2                !
 ! A81   A(28,27,88)           118.735          estimate D2E/DX2                !
 ! A82   A(27,28,29)           120.3165         estimate D2E/DX2                !
 ! A83   A(27,28,89)           121.5486         estimate D2E/DX2                !
 ! A84   A(29,28,89)           118.1283         estimate D2E/DX2                !
 ! A85   A(28,29,30)           120.9352         estimate D2E/DX2                !
 ! A86   A(28,29,90)           119.2842         estimate D2E/DX2                !
 ! A87   A(30,29,90)           119.7575         estimate D2E/DX2                !
 ! A88   A(29,30,31)           120.3991         estimate D2E/DX2                !
 ! A89   A(29,30,91)           120.0451         estimate D2E/DX2                !
 ! A90   A(31,30,91)           119.51           estimate D2E/DX2                !
 ! A91   A(30,31,32)           120.9681         estimate D2E/DX2                !
 ! A92   A(30,31,92)           119.1847         estimate D2E/DX2                !
 ! A93   A(32,31,92)           119.7687         estimate D2E/DX2                !
 ! A94   A(31,32,33)           120.1246         estimate D2E/DX2                !
 ! A95   A(31,32,93)           120.081          estimate D2E/DX2                !
 ! A96   A(33,32,93)           119.6798         estimate D2E/DX2                !
 ! A97   A(32,33,34)           120.9042         estimate D2E/DX2                !
 ! A98   A(32,33,94)           119.2079         estimate D2E/DX2                !
 ! A99   A(34,33,94)           119.7372         estimate D2E/DX2                !
 ! A100  A(33,34,35)           120.0053         estimate D2E/DX2                !
 ! A101  A(33,34,95)           120.0729         estimate D2E/DX2                !
 ! A102  A(35,34,95)           119.7384         estimate D2E/DX2                !
 ! A103  A(34,35,36)           120.7337         estimate D2E/DX2                !
 ! A104  A(34,35,96)           119.2876         estimate D2E/DX2                !
 ! A105  A(36,35,96)           119.7783         estimate D2E/DX2                !
 ! A106  A(35,36,37)           120.1591         estimate D2E/DX2                !
 ! A107  A(35,36,97)           119.9358         estimate D2E/DX2                !
 ! A108  A(37,36,97)           119.6987         estimate D2E/DX2                !
 ! A109  A(36,37,38)           120.2158         estimate D2E/DX2                !
 ! A110  A(36,37,98)           118.2725         estimate D2E/DX2                !
 ! A111  A(38,37,98)           121.3106         estimate D2E/DX2                !
 ! A112  A(37,38,39)           124.5495         estimate D2E/DX2                !
 ! A113  A(37,38,99)           118.8451         estimate D2E/DX2                !
 ! A114  A(39,38,99)           116.4395         estimate D2E/DX2                !
 ! A115  A(38,39,40)           124.8911         estimate D2E/DX2                !
 ! A116  A(38,39,100)          114.5588         estimate D2E/DX2                !
 ! A117  A(40,39,100)          120.5353         estimate D2E/DX2                !
 ! A118  A(39,40,41)           124.4214         estimate D2E/DX2                !
 ! A119  A(39,40,101)          120.3796         estimate D2E/DX2                !
 ! A120  A(41,40,101)          115.1954         estimate D2E/DX2                !
 ! A121  A(40,41,42)           123.8802         estimate D2E/DX2                !
 ! A122  A(40,41,102)          115.73           estimate D2E/DX2                !
 ! A123  A(42,41,102)          120.2999         estimate D2E/DX2                !
 ! A124  A(41,42,43)           125.1898         estimate D2E/DX2                !
 ! A125  A(41,42,103)          120.3232         estimate D2E/DX2                !
 ! A126  A(43,42,103)          114.4417         estimate D2E/DX2                !
 ! A127  A(42,43,44)           125.2928         estimate D2E/DX2                !
 ! A128  A(42,43,104)          114.3457         estimate D2E/DX2                !
 ! A129  A(44,43,104)          120.3495         estimate D2E/DX2                !
 ! A130  A(43,44,45)           123.9575         estimate D2E/DX2                !
 ! A131  A(43,44,105)          120.2847         estimate D2E/DX2                !
 ! A132  A(45,44,105)          115.72           estimate D2E/DX2                !
 ! A133  A(44,45,46)           124.2627         estimate D2E/DX2                !
 ! A134  A(44,45,106)          115.4487         estimate D2E/DX2                !
 ! A135  A(46,45,106)          120.2871         estimate D2E/DX2                !
 ! A136  A(45,46,47)           125.0432         estimate D2E/DX2                !
 ! A137  A(45,46,107)          120.4901         estimate D2E/DX2                !
 ! A138  A(47,46,107)          114.466          estimate D2E/DX2                !
 ! A139  A(46,47,48)           124.9409         estimate D2E/DX2                !
 ! A140  A(46,47,108)          116.1907         estimate D2E/DX2                !
 ! A141  A(48,47,108)          118.7794         estimate D2E/DX2                !
 ! A142  A(47,48,49)           120.0015         estimate D2E/DX2                !
 ! A143  A(47,48,109)          121.353          estimate D2E/DX2                !
 ! A144  A(49,48,109)          118.5301         estimate D2E/DX2                !
 ! A145  A(48,49,50)           120.7582         estimate D2E/DX2                !
 ! A146  A(48,49,110)          119.389          estimate D2E/DX2                !
 ! A147  A(50,49,110)          119.7337         estimate D2E/DX2                !
 ! A148  A(49,50,51)           120.5187         estimate D2E/DX2                !
 ! A149  A(49,50,111)          119.8709         estimate D2E/DX2                !
 ! A150  A(51,50,111)          119.4866         estimate D2E/DX2                !
 ! A151  A(50,51,52)           120.5585         estimate D2E/DX2                !
 ! A152  A(50,51,112)          119.4537         estimate D2E/DX2                !
 ! A153  A(52,51,112)          119.8735         estimate D2E/DX2                !
 ! A154  A(51,52,53)           120.7429         estimate D2E/DX2                !
 ! A155  A(51,52,113)          119.7827         estimate D2E/DX2                !
 ! A156  A(53,52,113)          119.3747         estimate D2E/DX2                !
 ! A157  A(52,53,54)           120.5361         estimate D2E/DX2                !
 ! A158  A(52,53,114)          119.4703         estimate D2E/DX2                !
 ! A159  A(54,53,114)          119.9162         estimate D2E/DX2                !
 ! A160  A(53,54,55)           120.9166         estimate D2E/DX2                !
 ! A161  A(53,54,115)          119.7454         estimate D2E/DX2                !
 ! A162  A(55,54,115)          119.2808         estimate D2E/DX2                !
 ! A163  A(54,55,56)           120.6235         estimate D2E/DX2                !
 ! A164  A(54,55,116)          119.4236         estimate D2E/DX2                !
 ! A165  A(56,55,116)          119.9169         estimate D2E/DX2                !
 ! A166  A(55,56,57)           120.9852         estimate D2E/DX2                !
 ! A167  A(55,56,117)          119.7439         estimate D2E/DX2                !
 ! A168  A(57,56,117)          119.2493         estimate D2E/DX2                !
 ! A169  A(56,57,58)           120.7587         estimate D2E/DX2                !
 ! A170  A(56,57,118)          119.3571         estimate D2E/DX2                !
 ! A171  A(58,57,118)          119.8744         estimate D2E/DX2                !
 ! A172  A(57,58,59)           120.9504         estimate D2E/DX2                !
 ! A173  A(57,58,119)          119.7974         estimate D2E/DX2                !
 ! A174  A(59,58,119)          119.2481         estimate D2E/DX2                !
 ! A175  A(58,59,60)           121.0518         estimate D2E/DX2                !
 ! A176  A(58,59,120)          119.9289         estimate D2E/DX2                !
 ! A177  A(60,59,120)          119.0184         estimate D2E/DX2                !
 ! A178  A(59,60,121)          121.143          estimate D2E/DX2                !
 ! A179  A(59,60,122)          119.9715         estimate D2E/DX2                !
 ! A180  A(121,60,122)         118.8853         estimate D2E/DX2                !
 ! D1    D(61,1,2,3)          -179.9305         estimate D2E/DX2                !
 ! D2    D(61,1,2,63)           -0.0255         estimate D2E/DX2                !
 ! D3    D(62,1,2,3)             0.0071         estimate D2E/DX2                !
 ! D4    D(62,1,2,63)          179.9121         estimate D2E/DX2                !
 ! D5    D(1,2,3,4)            179.5148         estimate D2E/DX2                !
 ! D6    D(1,2,3,64)            -0.2749         estimate D2E/DX2                !
 ! D7    D(63,2,3,4)            -0.3894         estimate D2E/DX2                !
 ! D8    D(63,2,3,64)          179.8209         estimate D2E/DX2                !
 ! D9    D(2,3,4,5)           -179.7162         estimate D2E/DX2                !
 ! D10   D(2,3,4,65)            -0.0027         estimate D2E/DX2                !
 ! D11   D(64,3,4,5)             0.0724         estimate D2E/DX2                !
 ! D12   D(64,3,4,65)          179.7859         estimate D2E/DX2                !
 ! D13   D(3,4,5,6)            178.9062         estimate D2E/DX2                !
 ! D14   D(3,4,5,66)            -0.6893         estimate D2E/DX2                !
 ! D15   D(65,4,5,6)            -0.8087         estimate D2E/DX2                !
 ! D16   D(65,4,5,66)          179.5958         estimate D2E/DX2                !
 ! D17   D(4,5,6,7)           -179.4863         estimate D2E/DX2                !
 ! D18   D(4,5,6,67)             0.0545         estimate D2E/DX2                !
 ! D19   D(66,5,6,7)             0.1072         estimate D2E/DX2                !
 ! D20   D(66,5,6,67)          179.648          estimate D2E/DX2                !
 ! D21   D(5,6,7,8)            178.4257         estimate D2E/DX2                !
 ! D22   D(5,6,7,68)            -1.0529         estimate D2E/DX2                !
 ! D23   D(67,6,7,8)            -1.1176         estimate D2E/DX2                !
 ! D24   D(67,6,7,68)          179.4038         estimate D2E/DX2                !
 ! D25   D(6,7,8,9)           -179.3919         estimate D2E/DX2                !
 ! D26   D(6,7,8,69)             0.0974         estimate D2E/DX2                !
 ! D27   D(68,7,8,9)             0.0841         estimate D2E/DX2                !
 ! D28   D(68,7,8,69)          179.5734         estimate D2E/DX2                !
 ! D29   D(7,8,9,10)           178.2966         estimate D2E/DX2                !
 ! D30   D(7,8,9,70)            -1.2254         estimate D2E/DX2                !
 ! D31   D(69,8,9,10)           -1.1954         estimate D2E/DX2                !
 ! D32   D(69,8,9,70)          179.2826         estimate D2E/DX2                !
 ! D33   D(8,9,10,11)         -179.5336         estimate D2E/DX2                !
 ! D34   D(8,9,10,71)            0.0896         estimate D2E/DX2                !
 ! D35   D(70,9,10,11)          -0.0141         estimate D2E/DX2                !
 ! D36   D(70,9,10,71)         179.6091         estimate D2E/DX2                !
 ! D37   D(9,10,11,12)         178.6441         estimate D2E/DX2                !
 ! D38   D(9,10,11,72)          -1.119          estimate D2E/DX2                !
 ! D39   D(71,10,11,12)         -0.9811         estimate D2E/DX2                !
 ! D40   D(71,10,11,72)        179.2558         estimate D2E/DX2                !
 ! D41   D(10,11,12,13)       -179.9464         estimate D2E/DX2                !
 ! D42   D(10,11,12,73)          0.0091         estimate D2E/DX2                !
 ! D43   D(72,11,12,13)         -0.1845         estimate D2E/DX2                !
 ! D44   D(72,11,12,73)        179.7709         estimate D2E/DX2                !
 ! D45   D(11,12,13,15)        179.4601         estimate D2E/DX2                !
 ! D46   D(11,12,13,74)         -0.7229         estimate D2E/DX2                !
 ! D47   D(73,12,13,15)         -0.4955         estimate D2E/DX2                !
 ! D48   D(73,12,13,74)        179.3214         estimate D2E/DX2                !
 ! D49   D(12,13,15,14)        179.4123         estimate D2E/DX2                !
 ! D50   D(12,13,15,75)         -0.1466         estimate D2E/DX2                !
 ! D51   D(74,13,15,14)         -0.4037         estimate D2E/DX2                !
 ! D52   D(74,13,15,75)       -179.9625         estimate D2E/DX2                !
 ! D53   D(16,14,15,13)       -179.4048         estimate D2E/DX2                !
 ! D54   D(16,14,15,75)          0.1563         estimate D2E/DX2                !
 ! D55   D(76,14,15,13)         -0.1117         estimate D2E/DX2                !
 ! D56   D(76,14,15,75)        179.4494         estimate D2E/DX2                !
 ! D57   D(15,14,16,17)        178.6589         estimate D2E/DX2                !
 ! D58   D(15,14,16,77)         -0.3603         estimate D2E/DX2                !
 ! D59   D(76,14,16,17)         -0.6298         estimate D2E/DX2                !
 ! D60   D(76,14,16,77)       -179.6491         estimate D2E/DX2                !
 ! D61   D(14,16,17,18)       -178.2243         estimate D2E/DX2                !
 ! D62   D(14,16,17,78)          0.5684         estimate D2E/DX2                !
 ! D63   D(77,16,17,18)          0.7987         estimate D2E/DX2                !
 ! D64   D(77,16,17,78)        179.5914         estimate D2E/DX2                !
 ! D65   D(16,17,18,19)        177.9805         estimate D2E/DX2                !
 ! D66   D(16,17,18,79)         -0.6027         estimate D2E/DX2                !
 ! D67   D(78,17,18,19)         -0.7686         estimate D2E/DX2                !
 ! D68   D(78,17,18,79)       -179.3518         estimate D2E/DX2                !
 ! D69   D(17,18,19,20)          1.3733         estimate D2E/DX2                !
 ! D70   D(17,18,19,80)       -177.5574         estimate D2E/DX2                !
 ! D71   D(79,18,19,20)        179.987          estimate D2E/DX2                !
 ! D72   D(79,18,19,80)          1.0564         estimate D2E/DX2                !
 ! D73   D(18,19,20,21)       -177.6327         estimate D2E/DX2                !
 ! D74   D(18,19,20,81)          1.1576         estimate D2E/DX2                !
 ! D75   D(80,19,20,21)          1.2445         estimate D2E/DX2                !
 ! D76   D(80,19,20,81)       -179.9652         estimate D2E/DX2                !
 ! D77   D(19,20,21,22)          0.9067         estimate D2E/DX2                !
 ! D78   D(19,20,21,82)        179.4211         estimate D2E/DX2                !
 ! D79   D(81,20,21,22)       -177.9466         estimate D2E/DX2                !
 ! D80   D(81,20,21,82)          0.5677         estimate D2E/DX2                !
 ! D81   D(20,21,22,23)        177.5452         estimate D2E/DX2                !
 ! D82   D(20,21,22,83)         -0.9465         estimate D2E/DX2                !
 ! D83   D(82,21,22,23)         -0.9329         estimate D2E/DX2                !
 ! D84   D(82,21,22,83)       -179.4246         estimate D2E/DX2                !
 ! D85   D(21,22,23,24)       -178.1852         estimate D2E/DX2                !
 ! D86   D(21,22,23,84)          0.6639         estimate D2E/DX2                !
 ! D87   D(83,22,23,24)          0.3539         estimate D2E/DX2                !
 ! D88   D(83,22,23,84)        179.203          estimate D2E/DX2                !
 ! D89   D(22,23,24,25)        178.1674         estimate D2E/DX2                !
 ! D90   D(22,23,24,85)         -1.035          estimate D2E/DX2                !
 ! D91   D(84,23,24,25)         -0.6423         estimate D2E/DX2                !
 ! D92   D(84,23,24,85)       -179.8447         estimate D2E/DX2                !
 ! D93   D(23,24,25,26)         -0.9183         estimate D2E/DX2                !
 ! D94   D(23,24,25,86)        179.7362         estimate D2E/DX2                !
 ! D95   D(85,24,25,26)        178.3022         estimate D2E/DX2                !
 ! D96   D(85,24,25,86)         -1.0433         estimate D2E/DX2                !
 ! D97   D(24,25,26,27)       -179.2862         estimate D2E/DX2                !
 ! D98   D(24,25,26,87)          0.5316         estimate D2E/DX2                !
 ! D99   D(86,25,26,27)          0.0257         estimate D2E/DX2                !
 ! D100  D(86,25,26,87)        179.8435         estimate D2E/DX2                !
 ! D101  D(25,26,27,28)          0.2284         estimate D2E/DX2                !
 ! D102  D(25,26,27,88)       -179.4878         estimate D2E/DX2                !
 ! D103  D(87,26,27,28)       -179.5987         estimate D2E/DX2                !
 ! D104  D(87,26,27,88)          0.6851         estimate D2E/DX2                !
 ! D105  D(26,27,28,29)       -179.119          estimate D2E/DX2                !
 ! D106  D(26,27,28,89)         -0.072          estimate D2E/DX2                !
 ! D107  D(88,27,28,29)          0.5905         estimate D2E/DX2                !
 ! D108  D(88,27,28,89)        179.6375         estimate D2E/DX2                !
 ! D109  D(27,28,29,30)        177.0192         estimate D2E/DX2                !
 ! D110  D(27,28,29,90)         -1.2265         estimate D2E/DX2                !
 ! D111  D(89,28,29,30)         -2.0599         estimate D2E/DX2                !
 ! D112  D(89,28,29,90)        179.6944         estimate D2E/DX2                !
 ! D113  D(28,29,30,31)       -177.1141         estimate D2E/DX2                !
 ! D114  D(28,29,30,91)          0.4125         estimate D2E/DX2                !
 ! D115  D(90,29,30,31)          1.1233         estimate D2E/DX2                !
 ! D116  D(90,29,30,91)        178.65           estimate D2E/DX2                !
 ! D117  D(29,30,31,32)        173.4065         estimate D2E/DX2                !
 ! D118  D(29,30,31,92)         -3.3631         estimate D2E/DX2                !
 ! D119  D(91,30,31,32)         -4.1333         estimate D2E/DX2                !
 ! D120  D(91,30,31,92)        179.0971         estimate D2E/DX2                !
 ! D121  D(30,31,32,33)       -175.1221         estimate D2E/DX2                !
 ! D122  D(30,31,32,93)          0.9741         estimate D2E/DX2                !
 ! D123  D(92,31,32,33)          1.6288         estimate D2E/DX2                !
 ! D124  D(92,31,32,93)        177.725          estimate D2E/DX2                !
 ! D125  D(31,32,33,34)        170.2162         estimate D2E/DX2                !
 ! D126  D(31,32,33,94)         -5.3103         estimate D2E/DX2                !
 ! D127  D(93,32,33,34)         -5.8957         estimate D2E/DX2                !
 ! D128  D(93,32,33,94)        178.5778         estimate D2E/DX2                !
 ! D129  D(32,33,34,35)       -173.5471         estimate D2E/DX2                !
 ! D130  D(32,33,34,95)          1.5187         estimate D2E/DX2                !
 ! D131  D(94,33,34,35)          1.956          estimate D2E/DX2                !
 ! D132  D(94,33,34,95)        177.0217         estimate D2E/DX2                !
 ! D133  D(33,34,35,36)        168.2146         estimate D2E/DX2                !
 ! D134  D(33,34,35,96)         -6.6292         estimate D2E/DX2                !
 ! D135  D(95,34,35,36)         -6.8677         estimate D2E/DX2                !
 ! D136  D(95,34,35,96)        178.2884         estimate D2E/DX2                !
 ! D137  D(34,35,36,37)       -172.8471         estimate D2E/DX2                !
 ! D138  D(34,35,36,97)          1.9177         estimate D2E/DX2                !
 ! D139  D(96,35,36,37)          1.9717         estimate D2E/DX2                !
 ! D140  D(96,35,36,97)        176.7364         estimate D2E/DX2                !
 ! D141  D(35,36,37,38)        167.9955         estimate D2E/DX2                !
 ! D142  D(35,36,37,98)         -6.9188         estimate D2E/DX2                !
 ! D143  D(97,36,37,38)         -6.7817         estimate D2E/DX2                !
 ! D144  D(97,36,37,98)        178.3041         estimate D2E/DX2                !
 ! D145  D(36,37,38,39)       -173.2696         estimate D2E/DX2                !
 ! D146  D(36,37,38,99)          1.8726         estimate D2E/DX2                !
 ! D147  D(98,37,38,39)          1.4874         estimate D2E/DX2                !
 ! D148  D(98,37,38,99)        176.6296         estimate D2E/DX2                !
 ! D149  D(37,38,39,40)         -8.5676         estimate D2E/DX2                !
 ! D150  D(37,38,39,100)       170.0354         estimate D2E/DX2                !
 ! D151  D(99,38,39,40)        176.1843         estimate D2E/DX2                !
 ! D152  D(99,38,39,100)        -5.2128         estimate D2E/DX2                !
 ! D153  D(38,39,40,41)        175.3831         estimate D2E/DX2                !
 ! D154  D(38,39,40,101)        -3.9056         estimate D2E/DX2                !
 ! D155  D(100,39,40,41)        -3.1416         estimate D2E/DX2                !
 ! D156  D(100,39,40,101)      177.5697         estimate D2E/DX2                !
 ! D157  D(39,40,41,42)        -11.4966         estimate D2E/DX2                !
 ! D158  D(39,40,41,102)       171.952          estimate D2E/DX2                !
 ! D159  D(101,40,41,42)       167.8253         estimate D2E/DX2                !
 ! D160  D(101,40,41,102)       -8.7262         estimate D2E/DX2                !
 ! D161  D(40,41,42,43)       -177.2597         estimate D2E/DX2                !
 ! D162  D(40,41,42,103)         0.1541         estimate D2E/DX2                !
 ! D163  D(102,41,42,43)        -0.858          estimate D2E/DX2                !
 ! D164  D(102,41,42,103)      176.5557         estimate D2E/DX2                !
 ! D165  D(41,42,43,44)         -8.0321         estimate D2E/DX2                !
 ! D166  D(41,42,43,104)       173.2315         estimate D2E/DX2                !
 ! D167  D(103,42,43,44)       174.42           estimate D2E/DX2                !
 ! D168  D(103,42,43,104)       -4.3164         estimate D2E/DX2                !
 ! D169  D(42,43,44,45)       -179.4178         estimate D2E/DX2                !
 ! D170  D(42,43,44,105)        -1.7501         estimate D2E/DX2                !
 ! D171  D(104,43,44,45)        -0.7518         estimate D2E/DX2                !
 ! D172  D(104,43,44,105)      176.9159         estimate D2E/DX2                !
 ! D173  D(43,44,45,46)        -11.445          estimate D2E/DX2                !
 ! D174  D(43,44,45,106)       169.0082         estimate D2E/DX2                !
 ! D175  D(105,44,45,46)       170.7904         estimate D2E/DX2                !
 ! D176  D(105,44,45,106)       -8.7564         estimate D2E/DX2                !
 ! D177  D(44,45,46,47)        177.4661         estimate D2E/DX2                !
 ! D178  D(44,45,46,107)        -2.2069         estimate D2E/DX2                !
 ! D179  D(106,45,46,47)        -3.0078         estimate D2E/DX2                !
 ! D180  D(106,45,46,107)      177.3193         estimate D2E/DX2                !
 ! D181  D(45,46,47,48)         -7.966          estimate D2E/DX2                !
 ! D182  D(45,46,47,108)       175.5207         estimate D2E/DX2                !
 ! D183  D(107,46,47,48)       171.7244         estimate D2E/DX2                !
 ! D184  D(107,46,47,108)       -4.7889         estimate D2E/DX2                !
 ! D185  D(46,47,48,49)       -175.2829         estimate D2E/DX2                !
 ! D186  D(46,47,48,109)         0.7543         estimate D2E/DX2                !
 ! D187  D(108,47,48,49)         1.1474         estimate D2E/DX2                !
 ! D188  D(108,47,48,109)      177.1846         estimate D2E/DX2                !
 ! D189  D(47,48,49,50)        169.871          estimate D2E/DX2                !
 ! D190  D(47,48,49,110)        -6.1496         estimate D2E/DX2                !
 ! D191  D(109,48,49,50)        -6.2773         estimate D2E/DX2                !
 ! D192  D(109,48,49,110)      177.7022         estimate D2E/DX2                !
 ! D193  D(48,49,50,51)       -174.6753         estimate D2E/DX2                !
 ! D194  D(48,49,50,111)         1.2592         estimate D2E/DX2                !
 ! D195  D(110,49,50,51)         1.3316         estimate D2E/DX2                !
 ! D196  D(110,49,50,111)      177.2662         estimate D2E/DX2                !
 ! D197  D(49,50,51,52)        169.8887         estimate D2E/DX2                !
 ! D198  D(49,50,51,112)        -6.2207         estimate D2E/DX2                !
 ! D199  D(111,50,51,52)        -6.0614         estimate D2E/DX2                !
 ! D200  D(111,50,51,112)      177.8292         estimate D2E/DX2                !
 ! D201  D(50,51,52,53)       -174.997          estimate D2E/DX2                !
 ! D202  D(50,51,52,113)         1.3503         estimate D2E/DX2                !
 ! D203  D(112,51,52,53)         1.0961         estimate D2E/DX2                !
 ! D204  D(112,51,52,113)      177.4435         estimate D2E/DX2                !
 ! D205  D(51,52,53,54)        171.344          estimate D2E/DX2                !
 ! D206  D(51,52,53,114)        -5.455          estimate D2E/DX2                !
 ! D207  D(113,52,53,54)        -5.0181         estimate D2E/DX2                !
 ! D208  D(113,52,53,114)      178.1829         estimate D2E/DX2                !
 ! D209  D(52,53,54,55)       -176.0601         estimate D2E/DX2                !
 ! D210  D(52,53,54,115)         1.1709         estimate D2E/DX2                !
 ! D211  D(114,53,54,55)         0.7247         estimate D2E/DX2                !
 ! D212  D(114,53,54,115)      177.9556         estimate D2E/DX2                !
 ! D213  D(53,54,55,56)        173.7337         estimate D2E/DX2                !
 ! D214  D(53,54,55,116)        -4.0811         estimate D2E/DX2                !
 ! D215  D(115,54,55,56)        -3.5099         estimate D2E/DX2                !
 ! D216  D(115,54,55,116)      178.6753         estimate D2E/DX2                !
 ! D217  D(54,55,56,57)       -177.4687         estimate D2E/DX2                !
 ! D218  D(54,55,56,117)         0.8259         estimate D2E/DX2                !
 ! D219  D(116,55,56,57)         0.3354         estimate D2E/DX2                !
 ! D220  D(116,55,56,117)      178.63           estimate D2E/DX2                !
 ! D221  D(55,56,57,58)        176.38           estimate D2E/DX2                !
 ! D222  D(55,56,57,118)        -2.4784         estimate D2E/DX2                !
 ! D223  D(117,56,57,58)        -1.9229         estimate D2E/DX2                !
 ! D224  D(117,56,57,118)      179.2187         estimate D2E/DX2                !
 ! D225  D(56,57,58,59)       -178.8227         estimate D2E/DX2                !
 ! D226  D(56,57,58,119)         0.4323         estimate D2E/DX2                !
 ! D227  D(118,57,58,59)         0.0298         estimate D2E/DX2                !
 ! D228  D(118,57,58,119)      179.2849         estimate D2E/DX2                !
 ! D229  D(57,58,59,60)        178.6357         estimate D2E/DX2                !
 ! D230  D(57,58,59,120)        -1.0143         estimate D2E/DX2                !
 ! D231  D(119,58,59,60)        -0.6234         estimate D2E/DX2                !
 ! D232  D(119,58,59,120)      179.7266         estimate D2E/DX2                !
 ! D233  D(58,59,60,121)         0.0753         estimate D2E/DX2                !
 ! D234  D(58,59,60,122)      -179.7444         estimate D2E/DX2                !
 ! D235  D(120,59,60,121)      179.7284         estimate D2E/DX2                !
 ! D236  D(120,59,60,122)       -0.0913         estimate D2E/DX2                !
 --------------------------------------------------------------------------------
 Trust Radius=3.00D-01 FncErr=1.00D-07 GrdErr=1.00D-06 EigMax=2.50D+02 EigMin=1.00D-04
 Number of steps in this run=    547 maximum allowed number of steps=    732.
 GradGradGradGradGradGradGradGradGradGradGradGradGradGradGradGradGradGrad

 Stoichiometry    C60H62
 Framework group  C1[X(C60H62)]
 Deg. of freedom   360
 Full point group                 C1      NOp   1
 Largest Abelian subgroup         C1      NOp   1
 Largest concise Abelian subgroup C1      NOp   1
                         Standard orientation:                         
 ---------------------------------------------------------------------
 Center     Atomic      Atomic             Coordinates (Angstroms)
 Number     Number       Type             X           Y           Z
 ---------------------------------------------------------------------
      1          6           0      -33.577302    4.456464   -0.785640
      2          6           0      -32.693748    3.527677   -0.413433
      3          6           0      -31.247877    3.710951   -0.652646
      4          6           0      -30.363787    2.781029   -0.269013
      5          6           0      -28.917263    2.967640   -0.502915
      6          6           0      -28.030647    2.048405   -0.100267
      7          6           0      -26.583943    2.242211   -0.325088
      8          6           0      -25.693381    1.339320    0.104384
      9          6           0      -24.246829    1.543028   -0.110486
     10          6           0      -23.351063    0.659474    0.347006
     11          6           0      -21.905530    0.873996    0.137865
     12          6           0      -21.003085    0.008506    0.615915
     13          6           0      -19.559879    0.232431    0.402568
     14          6           0      -17.209603   -0.391007    0.653201
     15          6           0      -18.648696   -0.620950    0.885437
     16          6           0      -16.287183   -1.241693    1.119609
     17          6           0      -14.853337   -1.011277    0.852366
     18          6           0      -13.923218   -1.878708    1.286303
     19          6           0      -12.463222   -1.757496    1.031684
     20          6           0      -11.885265   -0.743973    0.353212
     21          6           0      -10.434749   -0.641997    0.052310
     22          6           0       -9.506529   -1.549823    0.398195
     23          6           0       -8.097705   -1.365114   -0.004563
     24          6           0       -7.169804   -2.286106    0.305961
     25          6           0       -5.737515   -2.216983   -0.083223
     26          6           0       -5.188318   -1.225536   -0.815663
     27          6           0       -3.760561   -1.161916   -1.218558
     28          6           0       -2.829981   -2.081102   -0.912693
     29          6           0       -1.433469   -1.901864   -1.352716
     30          6           0       -0.484844   -2.778993   -1.005080
     31          6           0        0.918043   -2.555088   -1.397817
     32          6           0        1.894029   -3.351349   -0.948227
     33          6           0        3.301099   -3.047878   -1.264855
     34          6           0        4.297535   -3.712108   -0.670058
     35          6           0        5.694725   -3.299014   -0.892498
     36          6           0        6.681341   -3.790208   -0.135341
     37          6           0        8.049438   -3.253717   -0.261377
     38          6           0        8.983928   -3.565646    0.650124
     39          6           0       10.342731   -2.971827    0.699258
     40          6           0       10.870799   -2.171967   -0.251533
     41          6           0       12.194746   -1.503428   -0.147202
     42          6           0       12.916319   -1.438288    0.989860
     43          6           0       14.210637   -0.730951    1.141163
     44          6           0       14.922768   -0.185275    0.134179
     45          6           0       16.226087    0.507882    0.318561
     46          6           0       16.734652    0.863723    1.517153
     47          6           0       18.055077    1.506898    1.725136
     48          6           0       18.983242    1.683362    0.771201
     49          6           0       20.303314    2.243651    1.120518
     50          6           0       21.304482    2.240530    0.233096
     51          6           0       22.653168    2.693843    0.623508
     52          6           0       23.696794    2.505482   -0.192278
     53          6           0       25.063896    2.857029    0.238206
     54          6           0       26.121246    2.510926   -0.505809
     55          6           0       27.496259    2.781649   -0.042009
     56          6           0       28.550287    2.323458   -0.728750
     57          6           0       29.927448    2.541913   -0.242842
     58          6           0       30.974513    2.020242   -0.894646
     59          6           0       32.351543    2.214377   -0.398187
     60          6           0       33.394462    1.672713   -1.031233
     61          1           0      -34.635374    4.303303   -0.599824
     62          1           0      -33.257681    5.372109   -1.274529
     63          1           0      -33.052281    2.625243    0.074494
     64          1           0      -30.900798    4.616939   -1.144512
     65          1           0      -30.710594    1.876688    0.225961
     66          1           0      -28.571194    3.869038   -1.003859
     67          1           0      -28.375103    1.149368    0.405860
     68          1           0      -26.240803    3.136875   -0.839993
     69          1           0      -26.034357    0.447583    0.625551
     70          1           0      -23.908061    2.429528   -0.642208
     71          1           0      -23.686983   -0.224438    0.884504
     72          1           0      -21.573033    1.752647   -0.410664
     73          1           0      -21.331765   -0.869079    1.168015
     74          1           0      -19.236336    1.105708   -0.159821
     75          1           0      -18.967179   -1.495751    1.447775
     76          1           0      -16.898874    0.481317    0.082116
     77          1           0      -16.593667   -2.118084    1.686108
     78          1           0      -14.581586   -0.133459    0.279980
     79          1           0      -14.244250   -2.751733    1.848412
     80          1           0      -11.861814   -2.568329    1.420354
     81          1           0      -12.484223    0.067800   -0.035703
     82          1           0      -10.124652    0.232964   -0.513349
     83          1           0       -9.768252   -2.441965    0.953594
     84          1           0       -7.843642   -0.478035   -0.571004
     85          1           0       -7.471631   -3.162091    0.874148
     86          1           0       -5.131940   -3.045843    0.257487
     87          1           0       -5.793052   -0.397523   -1.159116
     88          1           0       -3.465427   -0.293572   -1.802149
     89          1           0       -3.072475   -2.960391   -0.328962
     90          1           0       -1.169967   -1.027698   -1.944408
     91          1           0       -0.739117   -3.642979   -0.395090
     92          1           0        1.164301   -1.697385   -2.020371
     93          1           0        1.657350   -4.188544   -0.295271
     94          1           0        3.528059   -2.223153   -1.937394
     95          1           0        4.076018   -4.505564    0.040376
     96          1           0        5.910449   -2.524087   -1.625208
     97          1           0        6.459889   -4.526452    0.634353
     98          1           0        8.250846   -2.542649   -1.053545
     99          1           0        8.721610   -4.241752    1.459914
    100          1           0       10.904664   -3.208506    1.592429
    101          1           0       10.322364   -1.968362   -1.161951
    102          1           0       12.541183   -1.004447   -1.043261
    103          1           0       12.543866   -1.889400    1.899528
    104          1           0       14.581774   -0.692722    2.156126
    105          1           0       14.574858   -0.267588   -0.887635
    106          1           0       16.767729    0.729892   -0.591931
    107          1           0       16.176741    0.682374    2.425626
    108          1           0       18.290194    1.800972    2.744867
    109          1           0       18.810325    1.363868   -0.249659
    110          1           0       20.479868    2.603535    2.131875
    111          1           0       21.142350    1.839956   -0.765170
    112          1           0       22.807332    3.127119    1.609331
    113          1           0       23.547111    2.033913   -1.161090
    114          1           0       25.212576    3.355483    1.193517
    115          1           0       25.970787    1.982848   -1.444889
    116          1           0       27.649329    3.328472    0.885683
    117          1           0       28.393233    1.757650   -1.644459
    118          1           0       30.087227    3.118280    0.665615
    119          1           0       30.812402    1.434199   -1.796639
    120          1           0       32.526574    2.801548    0.499303
    121          1           0       33.258823    1.075995   -1.928578
    122          1           0       34.398617    1.823199   -0.648674
 ---------------------------------------------------------------------
 Rotational constants (GHZ):           0.1111335           0.0016852           0.0016655
 Standard basis: 6-31G(d,p) (6D, 7F)
 There are  1210 symmetry adapted cartesian basis functions of A   symmetry.
 There are  1210 symmetry adapted basis functions of A   symmetry.
  1210 basis functions,  2114 primitive gaussians,  1210 cartesian basis functions
   211 alpha electrons      211 beta electrons
       nuclear repulsion energy      4710.2418351750 Hartrees.
 NAtoms=  122 NActive=  122 NUniq=  122 SFac= 1.00D+00 NAtFMM=   60 NAOKFM=T Big=T
 Integral buffers will be    131072 words long.
 Raffenetti 2 integral format.
 Two-electron integral symmetry is turned on.
 One-electron integrals computed using PRISM.
 NBasis=  1210 RedAO= T EigKep=  7.72D-04  NBF=  1210
 NBsUse=  1210 1.00D-06 EigRej= -1.00D+00 NBFU=  1210
 ExpMin= 1.61D-01 ExpMax= 3.05D+03 ExpMxC= 4.57D+02 IAcc=3 IRadAn=         5 AccDes= 0.00D+00
 Harris functional with IExCor=  402 and IRadAn=       5 diagonalized for initial guess.
 HarFok:  IExCor=  402 AccDes= 0.00D+00 IRadAn=         5 IDoV= 1 UseB2=F ITyADJ=14
 ICtDFT=  3500011 ScaDFX=  1.000000  1.000000  1.000000  1.000000
 FoFCou: FMM=F IPFlag=           0 FMFlag=      100000 FMFlg1=        2001
         NFxFlg=           0 DoJE=T BraDBF=F KetDBF=T FulRan=T
         wScrn=  0.000000 ICntrl=       500 IOpCl=  0 I1Cent=   200000004 NGrid=           0
         NMat0=    1 NMatS0=      1 NMatT0=    0 NMatD0=    1 NMtDS0=    0 NMtDT0=    0
 Petite list used in FoFCou.
 Requested convergence on RMS density matrix=1.00D-08 within 128 cycles.
 Requested convergence on MAX density matrix=1.00D-06.
 Requested convergence on             energy=1.00D-06.
 No special actions if energy rises.
 Integral accuracy reduced to 1.0D-05 until final iterations.
 Initial convergence to 1.0D-05 achieved.  Increase integral accuracy.
 SCF Done:  E(RB3LYP) =  -2323.38182143     A.U. after   13 cycles
            NFock= 13  Conv=0.64D-08     -V/T= 2.0100
 Hyperfine terms turned off by default for NAtoms > 100.

 **********************************************************************

            Population analysis using the SCF Density.

 **********************************************************************

 Orbital symmetries:
       Occupied  (A) (A) (A) (A) (A) (A) (A) (A) (A) (A) (A) (A)
                 (A) (A) (A) (A) (A) (A) (A) (A) (A) (A) (A) (A)
                 (A) (A) (A) (A) (A) (A) (A) (A) (A) (A) (A) (A)
                 (A) (A) (A) (A) (A) (A) (A) (A) (A) (A) (A) (A)
                 (A) (A) (A) (A) (A) (A) (A) (A) (A) (A) (A) (A)
                 (A) (A) (A) (A) (A) (A) (A) (A) (A) (A) (A) (A)
                 (A) (A) (A) (A) (A) (A) (A) (A) (A) (A) (A) (A)
                 (A) (A) (A) (A) (A) (A) (A) (A) (A) (A) (A) (A)
                 (A) (A) (A) (A) (A) (A) (A) (A) (A) (A) (A) (A)
                 (A) (A) (A) (A) (A) (A) (A) (A) (A) (A) (A) (A)
                 (A) (A) (A) (A) (A) (A) (A) (A) (A) (A) (A) (A)
                 (A) (A) (A) (A) (A) (A) (A) (A) (A) (A) (A) (A)
                 (A) (A) (A) (A) (A) (A) (A) (A) (A) (A) (A) (A)
                 (A) (A) (A) (A) (A) (A) (A) (A) (A) (A) (A) (A)
                 (A) (A) (A) (A) (A) (A) (A) (A) (A) (A) (A) (A)
                 (A) (A) (A) (A) (A) (A) (A) (A) (A) (A) (A) (A)
                 (A) (A) (A) (A) (A) (A) (A) (A) (A) (A) (A) (A)
                 (A) (A) (A) (A) (A) (A) (A)
       Virtual   (A) (A) (A) (A) (A) (A) (A) (A) (A) (A) (A) (A)
                 (A) (A) (A) (A) (A) (A) (A) (A) (A) (A) (A) (A)
                 (A) (A) (A) (A) (A) (A) (A) (A) (A) (A) (A) (A)
                 (A) (A) (A) (A) (A) (A) (A) (A) (A) (A) (A) (A)
                 (A) (A) (A) (A) (A) (A) (A) (A) (A) (A) (A) (A)
                 (A) (A) (A) (A) (A) (A) (A) (A) (A) (A) (A) (A)
                 (A) (A) (A) (A) (A) (A) (A) (A) (A) (A) (A) (A)
                 (A) (A) (A) (A) (A) (A) (A) (A) (A) (A) (A) (A)
                 (A) (A) (A) (A) (A) (A) (A) (A) (A) (A) (A) (A)
                 (A) (A) (A) (A) (A) (A) (A) (A) (A) (A) (A) (A)
                 (A) (A) (A) (A) (A) (A) (A) (A) (A) (A) (A) (A)
                 (A) (A) (A) (A) (A) (A) (A) (A) (A) (A) (A) (A)
                 (A) (A) (A) (A) (A) (A) (A) (A) (A) (A) (A) (A)
                 (A) (A) (A) (A) (A) (A) (A) (A) (A) (A) (A) (A)
                 (A) (A) (A) (A) (A) (A) (A) (A) (A) (A) (A) (A)
                 (A) (A) (A) (A) (A) (A) (A) (A) (A) (A) (A) (A)
                 (A) (A) (A) (A) (A) (A) (A) (A) (A) (A) (A) (A)
                 (A) (A) (A) (A) (A) (A) (A) (A) (A) (A) (A) (A)
                 (A) (A) (A) (A) (A) (A) (A) (A) (A) (A) (A) (A)
                 (A) (A) (A) (A) (A) (A) (A) (A) (A) (A) (A) (A)
                 (A) (A) (A) (A) (A) (A) (A) (A) (A) (A) (A) (A)
                 (A) (A) (A) (A) (A) (A) (A) (A) (A) (A) (A) (A)
                 (A) (A) (A) (A) (A) (A) (A) (A) (A) (A) (A) (A)
                 (A) (A) (A) (A) (A) (A) (A) (A) (A) (A) (A) (A)
                 (A) (A) (A) (A) (A) (A) (A) (A) (A) (A) (A) (A)
                 (A) (A) (A) (A) (A) (A) (A) (A) (A) (A) (A) (A)
                 (A) (A) (A) (A) (A) (A) (A) (A) (A) (A) (A) (A)
                 (A) (A) (A) (A) (A) (A) (A) (A) (A) (A) (A) (A)
                 (A) (A) (A) (A) (A) (A) (A) (A) (A) (A) (A) (A)
                 (A) (A) (A) (A) (A) (A) (A) (A) (A) (A) (A) (A)
                 (A) (A) (A) (A) (A) (A) (A) (A) (A) (A) (A) (A)
                 (A) (A) (A) (A) (A) (A) (A) (A) (A) (A) (A) (A)
                 (A) (A) (A) (A) (A) (A) (A) (A) (A) (A) (A) (A)
                 (A) (A) (A) (A) (A) (A) (A) (A) (A) (A) (A) (A)
                 (A) (A) (A) (A) (A) (A) (A) (A) (A) (A) (A) (A)
                 (A) (A) (A) (A) (A) (A) (A) (A) (A) (A) (A) (A)
                 (A) (A) (A) (A) (A) (A) (A) (A) (A) (A) (A) (A)
                 (A) (A) (A) (A) (A) (A) (A) (A) (A) (A) (A) (A)
                 (A) (A) (A) (A) (A) (A) (A) (A) (A) (A) (A) (A)
                 (A) (A) (A) (A) (A) (A) (A) (A) (A) (A) (A) (A)
                 (A) (A) (A) (A) (A) (A) (A) (A) (A) (A) (A) (A)
                 (A) (A) (A) (A) (A) (A) (A) (A) (A) (A) (A) (A)
                 (A) (A) (A) (A) (A) (A) (A) (A) (A) (A) (A) (A)
                 (A) (A) (A) (A) (A) (A) (A) (A) (A) (A) (A) (A)
                 (A) (A) (A) (A) (A) (A) (A) (A) (A) (A) (A) (A)
                 (A) (A) (A) (A) (A) (A) (A) (A) (A) (A) (A) (A)
                 (A) (A) (A) (A) (A) (A) (A) (A) (A) (A) (A) (A)
                 (A) (A) (A) (A) (A) (A) (A) (A) (A) (A) (A) (A)
                 (A) (A) (A) (A) (A) (A) (A) (A) (A) (A) (A) (A)
                 (A) (A) (A) (A) (A) (A) (A) (A) (A) (A) (A) (A)
                 (A) (A) (A) (A) (A) (A) (A) (A) (A) (A) (A) (A)
                 (A) (A) (A) (A) (A) (A) (A) (A) (A) (A) (A) (A)
                 (A) (A) (A) (A) (A) (A) (A) (A) (A) (A) (A) (A)
                 (A) (A) (A) (A) (A) (A) (A) (A) (A) (A) (A) (A)
                 (A) (A) (A) (A) (A) (A) (A) (A) (A) (A) (A) (A)
                 (A) (A) (A) (A) (A) (A) (A) (A) (A) (A) (A) (A)
                 (A) (A) (A) (A) (A) (A) (A) (A) (A) (A) (A) (A)
                 (A) (A) (A) (A) (A) (A) (A) (A) (A) (A) (A) (A)
                 (A) (A) (A) (A) (A) (A) (A) (A) (A) (A) (A) (A)
                 (A) (A) (A) (A) (A) (A) (A) (A) (A) (A) (A) (A)
                 (A) (A) (A) (A) (A) (A) (A) (A) (A) (A) (A) (A)
                 (A) (A) (A) (A) (A) (A) (A) (A) (A) (A) (A) (A)
                 (A) (A) (A) (A) (A) (A) (A) (A) (A) (A) (A) (A)
                 (A) (A) (A) (A) (A) (A) (A) (A) (A) (A) (A) (A)
                 (A) (A) (A) (A) (A) (A) (A) (A) (A) (A) (A) (A)
                 (A) (A) (A) (A) (A) (A) (A) (A) (A) (A) (A) (A)
                 (A) (A) (A) (A) (A) (A) (A) (A) (A) (A) (A) (A)
                 (A) (A) (A) (A) (A) (A) (A) (A) (A) (A) (A) (A)
                 (A) (A) (A) (A) (A) (A) (A) (A) (A) (A) (A) (A)
                 (A) (A) (A) (A) (A) (A) (A) (A) (A) (A) (A) (A)
                 (A) (A) (A) (A) (A) (A) (A) (A) (A) (A) (A) (A)
                 (A) (A) (A) (A) (A) (A) (A) (A) (A) (A) (A) (A)
                 (A) (A) (A) (A) (A) (A) (A) (A) (A) (A) (A) (A)
                 (A) (A) (A) (A) (A) (A) (A) (A) (A) (A) (A) (A)
                 (A) (A) (A) (A) (A) (A) (A) (A) (A) (A) (A) (A)
                 (A) (A) (A) (A) (A) (A) (A) (A) (A) (A) (A) (A)
                 (A) (A) (A) (A) (A) (A) (A) (A) (A) (A) (A) (A)
                 (A) (A) (A) (A) (A) (A) (A) (A) (A) (A) (A) (A)
                 (A) (A) (A) (A) (A) (A) (A) (A) (A) (A) (A) (A)
                 (A) (A) (A) (A) (A) (A) (A) (A) (A) (A) (A) (A)
                 (A) (A) (A) (A) (A) (A) (A) (A) (A) (A) (A) (A)
                 (A) (A) (A) (A) (A) (A) (A) (A) (A) (A) (A) (A)
                 (A) (A) (A) (A) (A) (A) (A) (A) (A) (A) (A) (A)
                 (A) (A) (A)
 The electronic state is 1-A.
 Alpha  occ. eigenvalues --  -10.19217 -10.19214 -10.19206 -10.19195 -10.19182
 Alpha  occ. eigenvalues --  -10.19175 -10.19171 -10.19156 -10.19153 -10.19151
 Alpha  occ. eigenvalues --  -10.19150 -10.19134 -10.19130 -10.19128 -10.19127
 Alpha  occ. eigenvalues --  -10.19120 -10.19113 -10.19111 -10.19111 -10.19105
 Alpha  occ. eigenvalues --  -10.19103 -10.19099 -10.19099 -10.19094 -10.19092
 Alpha  occ. eigenvalues --  -10.19090 -10.19088 -10.19087 -10.19083 -10.19080
 Alpha  occ. eigenvalues --  -10.19076 -10.19072 -10.19066 -10.19065 -10.19062
 Alpha  occ. eigenvalues --  -10.19061 -10.19053 -10.19051 -10.19042 -10.19030
 Alpha  occ. eigenvalues --  -10.19027 -10.19019 -10.19014 -10.19013 -10.19012
 Alpha  occ. eigenvalues --  -10.19012 -10.19007 -10.19002 -10.19000 -10.18998
 Alpha  occ. eigenvalues --  -10.18994 -10.18991 -10.18985 -10.18985 -10.18975
 Alpha  occ. eigenvalues --  -10.18973 -10.18952 -10.18930 -10.17934 -10.17921
 Alpha  occ. eigenvalues --   -0.83056  -0.82971  -0.82927  -0.82698  -0.82512
 Alpha  occ. eigenvalues --   -0.82339  -0.82105  -0.81789  -0.81499  -0.81114
 Alpha  occ. eigenvalues --   -0.80721  -0.80312  -0.79830  -0.79335  -0.78799
 Alpha  occ. eigenvalues --   -0.78235  -0.77637  -0.77003  -0.76353  -0.75654
 Alpha  occ. eigenvalues --   -0.74947  -0.74203  -0.73429  -0.72709  -0.71863
 Alpha  occ. eigenvalues --   -0.71097  -0.70320  -0.69821  -0.68731  -0.68094
 Alpha  occ. eigenvalues --   -0.65053  -0.64468  -0.63055  -0.62573  -0.61912
 Alpha  occ. eigenvalues --   -0.61330  -0.60066  -0.59589  -0.58772  -0.57690
 Alpha  occ. eigenvalues --   -0.57320  -0.57008  -0.56993  -0.56892  -0.56840
 Alpha  occ. eigenvalues --   -0.56602  -0.56180  -0.56012  -0.55850  -0.55554
 Alpha  occ. eigenvalues --   -0.55313  -0.55073  -0.54980  -0.54682  -0.54465
 Alpha  occ. eigenvalues --   -0.54381  -0.52667  -0.52273  -0.51810  -0.50104
 Alpha  occ. eigenvalues --   -0.49998  -0.49091  -0.48720  -0.48388  -0.48111
 Alpha  occ. eigenvalues --   -0.47841  -0.47656  -0.47410  -0.46873  -0.46820
 Alpha  occ. eigenvalues --   -0.46325  -0.45958  -0.45665  -0.45212  -0.45146
 Alpha  occ. eigenvalues --   -0.44659  -0.44402  -0.43979  -0.43454  -0.43208
 Alpha  occ. eigenvalues --   -0.42982  -0.42344  -0.41641  -0.41483  -0.41259
 Alpha  occ. eigenvalues --   -0.40941  -0.40639  -0.40267  -0.40008  -0.39541
 Alpha  occ. eigenvalues --   -0.39235  -0.39202  -0.38860  -0.38585  -0.38297
 Alpha  occ. eigenvalues --   -0.38139  -0.38003  -0.37871  -0.37632  -0.37530
 Alpha  occ. eigenvalues --   -0.37493  -0.37246  -0.37071  -0.36846  -0.36605
 Alpha  occ. eigenvalues --   -0.36388  -0.36229  -0.36024  -0.35856  -0.35660
 Alpha  occ. eigenvalues --   -0.35404  -0.35329  -0.35279  -0.35165  -0.35140
 Alpha  occ. eigenvalues --   -0.35048  -0.34941  -0.34784  -0.34604  -0.34492
 Alpha  occ. eigenvalues --   -0.34270  -0.34248  -0.34117  -0.34005  -0.33735
 Alpha  occ. eigenvalues --   -0.33709  -0.33370  -0.33132  -0.33115  -0.33013
 Alpha  occ. eigenvalues --   -0.32860  -0.32381  -0.31858  -0.31226  -0.30601
 Alpha  occ. eigenvalues --   -0.29920  -0.29185  -0.28415  -0.27602  -0.26749
 Alpha  occ. eigenvalues --   -0.25853  -0.24925  -0.23965  -0.22964  -0.21963
 Alpha  occ. eigenvalues --   -0.20925  -0.19891  -0.18875  -0.18010  -0.17124
 Alpha  occ. eigenvalues --   -0.16532
 Alpha virt. eigenvalues --   -0.08491  -0.07866  -0.06641  -0.05863  -0.04803
 Alpha virt. eigenvalues --   -0.03693  -0.02455  -0.01454  -0.00239   0.00905
 Alpha virt. eigenvalues --    0.01825   0.03028   0.03996   0.04791   0.05680
 Alpha virt. eigenvalues --    0.06613   0.07271   0.07801   0.07881   0.07952
 Alpha virt. eigenvalues --    0.08226   0.08358   0.08406   0.08666   0.08920
 Alpha virt. eigenvalues --    0.08978   0.09217   0.09375   0.09438   0.09567
 Alpha virt. eigenvalues --    0.09760   0.09793   0.09816   0.09908   0.10269
 Alpha virt. eigenvalues --    0.10751   0.11284   0.11526   0.11867   0.12047
 Alpha virt. eigenvalues --    0.12185   0.12442   0.12502   0.12609   0.12660
 Alpha virt. eigenvalues --    0.12824   0.13072   0.13137   0.13230   0.13351
 Alpha virt. eigenvalues --    0.13650   0.13892   0.13980   0.14051   0.14074
 Alpha virt. eigenvalues --    0.14258   0.14302   0.14394   0.14497   0.14584
 Alpha virt. eigenvalues --    0.14677   0.14795   0.14957   0.15085   0.15269
 Alpha virt. eigenvalues --    0.15433   0.15480   0.15515   0.15623   0.15838
 Alpha virt. eigenvalues --    0.16168   0.16231   0.16709   0.16828   0.17416
 Alpha virt. eigenvalues --    0.18186   0.18392   0.19116   0.19658   0.19741
 Alpha virt. eigenvalues --    0.19945   0.20140   0.20548   0.20745   0.21258
 Alpha virt. eigenvalues --    0.21396   0.22090   0.22442   0.22691   0.22942
 Alpha virt. eigenvalues --    0.24928   0.25598   0.26186   0.26248   0.27174
 Alpha virt. eigenvalues --    0.27457   0.27562   0.28091   0.28490   0.28679
 Alpha virt. eigenvalues --    0.28809   0.29293   0.30319   0.30636   0.31038
 Alpha virt. eigenvalues --    0.31273   0.31425   0.31545   0.31839   0.32551
 Alpha virt. eigenvalues --    0.32726   0.32800   0.33274   0.33564   0.33894
 Alpha virt. eigenvalues --    0.34267   0.34547   0.35141   0.35504   0.35755
 Alpha virt. eigenvalues --    0.36113   0.36157   0.36526   0.36623   0.36739
 Alpha virt. eigenvalues --    0.37296   0.37884   0.38102   0.38539   0.38959
 Alpha virt. eigenvalues --    0.39502   0.39688   0.40289   0.40758   0.41411
 Alpha virt. eigenvalues --    0.41530   0.41653   0.41680   0.41794   0.41984
 Alpha virt. eigenvalues --    0.42236   0.42585   0.42961   0.43587   0.44142
 Alpha virt. eigenvalues --    0.44543   0.45154   0.45793   0.47384   0.47717
 Alpha virt. eigenvalues --    0.48075   0.48926   0.49057   0.50632   0.51388
 Alpha virt. eigenvalues --    0.51514   0.51602   0.51712   0.51738   0.51868
 Alpha virt. eigenvalues --    0.52039   0.52294   0.52424   0.52526   0.52888
 Alpha virt. eigenvalues --    0.53222   0.53245   0.53564   0.53643   0.53857
 Alpha virt. eigenvalues --    0.54148   0.54617   0.54719   0.55034   0.55145
[...]
 0016,-0.00000077,-0.00000010,0.00000005,0.00000094,0.00000022,-0.00000
 031,-0.00000068,0.00000063,-0.00000034,0.00000076,-0.00000107,0.000000
 28,-0.00000141,0.00000006,0.00000007,0.00000177,0.00000020,-0.00000053
 ,-0.00000126,0.00000136,-0.00000089,0.00000173,-0.00000203,0.00000071,
 -0.00000314,-0.00000007,0.00000044,0.00000389,0.,-0.00000137,-0.000003
 02,0.00000316,-0.00000227,0.00000447,-0.00000358,0.00000215,-0.0000051
 1,0.00000523,-0.00000386,0.00000724,-0.00000905,-0.00000081,-0.0000091
 1,0.00000994,-0.00000594,0.00001876,-0.00000032,0.00001896,-0.00001973
 ,0.00001596,-0.00001655,0.00001801,-0.00006925,-0.00005453,-0.00003396
 ,0.00005840,0.00000019,0.00010085,0.00010037,0.00021663,-0.00038036,-0
 .00001148,0.00003155,0.00018772,-0.00457529,-0.00383930,0.01217163,0.0
 0961144,-0.00578211,0.10152888,0.09819255,-0.13462623,0.00000006,0.,0.
 ,0.,-0.00000001,-0.00000001,0.00000003,-0.00000003,-0.00000001,0.,-0.0
 0000001,-0.00000002,0.00000001,0.,0.,0.,0.,0.,0.,-0.00000001,0.0000000
 2,0.,-0.00000002,0.,0.,-0.00000001,0.00000003,0.,-0.00000004,0.0000000
 4,0.,-0.00000002,0.00000004,0.,-0.00000004,0.00000004,0.,-0.00000003,0
 .00000003,0.,-0.00000004,0.00000004,0.,-0.00000002,0.00000003,0.,-0.00
 000004,0.00000003,0.,-0.00000003,0.00000003,0.,-0.00000003,0.00000004,
 0.00000002,-0.00000003,0.00000003,0.00000002,0.00000005,0.,0.00000003,
 0.00000003,0.,0.,-0.00000004,0.00000004,0.00000001,-0.00000003,0.00000
 004,0.,-0.00000003,0.00000004,0.00000002,-0.00000003,0.00000004,0.0000
 0003,0.00000006,0.,0.00000002,0.00000004,0.,0.00000002,-0.00000003,0.0
 0000005,0.00000001,-0.00000002,0.00000005,0.,-0.00000002,0.00000005,0.
 ,-0.00000006,0.00000007,0.,-0.00000002,0.00000007,0.,-0.00000006,0.000
 00008,0.,-0.00000004,0.00000009,0.00000002,-0.00000005,0.00000009,0.,-
 0.00000004,0.00000009,0.00000003,-0.00000006,0.00000009,0.,-0.00000001
 ,0.00000011,0.00000009,-0.00000005,0.00000009,-0.00000004,0.00000005,0
 .00000010,-0.00000001,0.00000005,0.00000010,0.,-0.00000005,0.00000019,
 0.00000011,-0.00000008,0.00000016,-0.00000008,0.00000006,0.00000021,-0
 .00000001,0.00000011,0.00000022,0.00000003,0.00000001,0.00000033,0.000
 00020,-0.00000008,0.00000029,-0.00000011,0.00000019,0.00000047,-0.0000
 0008,0.00000022,0.00000049,-0.00000010,0.,0.00000059,-0.00000021,0.000
 00042,0.00000091,0.00000012,0.00000069,0.00000204,-0.00000063,0.000000
 68,0.00000159,-0.00000155,-0.00000565,-0.00000410,-0.00000248,0.000001
 79,0.00000340,0.00000413,0.00000183,0.00001344,-0.00002805,0.00001152,
 0.00000143,0.00010232,0.00001699,0.00029955,-0.00080046,0.00025589,0.0
 0029413,-0.00003021,0.00694968,0.00555877,-0.11168203,-0.11112664,0.13
 573807,-0.00000108,0.00000082,-0.00000016,0.00000021,-0.00000169,0.000
 00068,-0.00000051,0.00000151,-0.00000039,0.00000036,-0.00000186,0.0000
 0072,-0.00000041,0.00000144,-0.00000050,0.00000038,-0.00000189,0.00000
 069,-0.00000049,0.00000151,-0.00000054,0.00000037,-0.00000191,0.000000
 71,-0.00000034,0.00000161,-0.00000061,0.00000015,-0.00000201,0.0000007
 4,-0.00000012,0.00000166,-0.00000070,-0.00000005,-0.00000213,0.0000008
 4,0.00000016,0.00000176,-0.00000075,0.00000031,0.00000186,-0.00000081,
 -0.00000027,-0.00000236,0.00000094,-0.00000046,-0.00000245,0.00000109,
 0.00000032,0.00000172,-0.00000081,-0.00000049,-0.00000381,0.00000161,0
 .00000012,0.00000233,-0.00000102,0.00000269,0.00000286,-0.00000153,-0.
 00000223,-0.00000161,0.00000095,0.00000032,-0.00000283,0.00000113,-0.0
 0000066,0.00000191,-0.00000074,0.00000015,-0.00000473,0.00000198,-0.00
 000026,0.00000389,-0.00000162,0.00000406,0.00000321,-0.00000188,-0.000
 00382,-0.00000257,0.00000150,0.00000139,-0.00000353,0.00000130,-0.0000
 0162,0.00000259,-0.00000095,0.00000110,-0.00000391,0.00000157,-0.00000
 109,0.00000286,-0.00000119,0.00000077,-0.00000453,0.00000185,-0.000000
 59,0.00000332,-0.00000141,0.00000027,-0.00000526,0.00000210,-0.0000001
 4,0.00000373,-0.00000156,0.00000004,-0.00000588,0.00000273,-0.00000032
 ,0.00000347,-0.00000160,-0.00000063,-0.00001069,0.00000424,0.00000004,
 0.00000789,-0.00000337,0.00000843,0.00000753,-0.00000420,-0.00000801,-
 0.00000659,0.00000402,0.00000236,-0.00001212,0.00000582,-0.00000241,0.
 00001198,-0.00000630,0.00001327,0.00000576,-0.00000624,-0.00001486,-0.
 00000788,0.00000820,0.00000841,-0.00001429,0.00000864,-0.00000821,0.00
 001820,-0.00001196,0.00001779,-0.00000343,-0.00000268,-0.00001723,0.00
 000758,-0.00000141,0.00002455,-0.00000339,-0.00000011,-0.00002417,0.00
 001201,-0.00000474,0.00003209,-0.00001698,-0.00001102,-0.00003911,0.00
 002556,-0.00000817,0.00006573,0.00001988,0.00004384,-0.00010544,0.0000
 4704,-0.00002883,0.00008034,-0.00012802,-0.00027569,-0.00039630,0.0000
 8995,0.00008323,0.00182035,0.00238084,0.00055400,-0.00603149,0.0001035
 2,0.00243260,-0.32524559,0.07633087,0.01294170,0.00000008,-0.00000015,
 0.00000005,0.00000009,0.,-0.00000006,0.00000010,0.00000027,-0.00000019
 ,0.00000004,0.,-0.00000008,0.,0.00000038,-0.00000018,0.00000002,0.0000
 0005,-0.00000006,-0.00000003,0.00000035,-0.00000012,0.00000001,0.00000
 006,-0.00000005,-0.00000005,0.00000036,-0.00000010,0.,0.00000004,0.000
 00001,-0.00000005,0.00000039,-0.00000009,0.,0.00000006,0.00000002,-0.0
 0000006,0.00000042,-0.00000014,0.,0.00000009,-0.00000001,-0.00000007,0
 .00000047,-0.00000016,0.,0.00000014,-0.00000004,-0.00000007,0.00000049
 ,-0.00000018,0.00000003,0.00000015,-0.00000003,-0.00000026,0.00000069,
 -0.00000024,0.00000023,-0.00000017,0.00000005,-0.00000063,-0.00000017,
 0.00000015,0.00000027,0.00000002,-0.00000002,-0.00000016,0.00000052,-0
 .00000018,0.00000007,0.00000019,-0.00000007,-0.00000033,0.00000080,-0.
 00000028,0.00000022,-0.00000027,0.00000009,-0.00000085,-0.00000023,0.0
 0000020,0.00000032,0.00000014,-0.00000007,-0.00000024,0.00000073,-0.00
 000025,0.00000007,0.00000036,-0.00000013,-0.00000021,0.00000096,-0.000
 00036,0.,0.00000045,-0.00000014,-0.00000022,0.00000109,-0.00000041,0.,
 0.00000054,-0.00000018,-0.00000025,0.00000127,-0.00000046,-0.00000002,
 0.00000068,-0.00000023,-0.00000025,0.00000144,-0.00000058,0.00000001,0
 .00000075,-0.00000037,-0.00000066,0.00000200,-0.00000077,0.00000040,-0
 .00000033,0.00000037,-0.00000168,-0.00000052,0.00000055,0.00000049,0.0
 0000037,-0.00000046,-0.00000099,0.00000192,-0.00000088,0.00000025,-0.0
 0000047,0.00000050,-0.00000199,-0.00000050,0.00000078,0.00000066,0.000
 00064,-0.00000058,-0.00000130,0.00000241,-0.00000130,0.00000021,-0.000
 00072,0.00000057,-0.00000229,-0.00000095,0.00000134,-0.00000104,-0.000
 00086,0.00000118,-0.00000284,-0.00000155,0.00000211,-0.00000149,-0.000
 00133,0.00000094,-0.00000303,-0.00000199,0.00000276,-0.00000056,0.0000
 0159,0.00000452,-0.00000253,-0.00000336,0.00000338,-0.00000260,-0.0000
 0927,-0.00001024,0.00000829,-0.00000896,0.00001102,-0.00000318,0.00007
 384,-0.00002109,0.00037819,-0.00018011,-0.00002286,0.00078988,-0.00069
 869,-0.00135431,-0.01196364,0.00598618,-0.00114941,0.34063551,0.000001
 09,-0.00000061,0.00000008,-0.00000053,0.00000148,-0.00000056,0.0000005
 1,-0.00000131,0.00000040,-0.00000034,0.00000158,-0.00000062,0.00000033
 ,-0.00000127,0.00000046,-0.00000027,0.00000166,-0.00000064,0.00000028,
 -0.00000132,0.00000049,-0.00000021,0.00000173,-0.00000069,0.00000019,-
 0.00000139,0.00000054,-0.00000011,0.00000186,-0.00000073,0.00000010,-0
 .00000146,0.00000059,0.,0.00000200,-0.00000082,-0.00000003,-0.00000156
 ,0.00000064,-0.00000012,-0.00000167,0.00000069,0.00000011,0.00000220,-
 0.00000091,0.00000019,0.00000234,-0.00000102,-0.00000018,-0.00000160,0
 .00000070,0.00000035,0.00000359,-0.00000154,-0.00000007,-0.00000228,0.
 00000096,-0.00000253,-0.00000271,0.00000142,0.00000210,0.00000155,-0.0
 0000092,-0.00000032,0.00000273,-0.00000113,0.00000044,-0.00000185,0.00
 000072,-0.00000002,0.00000455,-0.00000195,0.00000019,-0.00000354,0.000
 00146,-0.00000370,-0.00000328,0.00000182,0.00000336,0.00000229,-0.0000
 0138,-0.00000094,0.00000354,-0.00000141,0.00000106,-0.00000268,0.00000
 100,-0.00000064,0.00000405,-0.00000171,0.00000063,-0.00000305,0.000001
 23,-0.00000026,0.00000474,-0.00000205,0.00000018,-0.00000354,0.0000014
 7,0.00000023,0.00000548,-0.00000234,-0.00000031,-0.00000407,0.00000169
 ,0.00000063,0.00000611,-0.00000299,-0.00000068,-0.00000408,0.00000189,
 0.00000170,0.00001071,-0.00000446,-0.00000061,-0.00000664,0.00000270,-
 0.00000730,-0.00000907,0.00000458,0.00000586,0.00000567,-0.00000324,0.
 00000028,0.00001242,-0.00000647,0.00000095,-0.00000946,0.00000468,-0.0
 0001074,-0.00000925,0.00000752,0.00000976,0.00000645,-0.00000617,-0.00
 000181,0.00001522,-0.00001035,0.00000384,-0.00001246,0.00000792,-0.000
 01203,-0.00000682,0.00000559,0.00001078,0.00000374,-0.00000552,-0.0000
 1133,-0.00000489,0.00001629,0.00001241,0.00000582,-0.00001080,-0.00002
 206,-0.00004168,-0.00001420,0.00002352,0.00001705,-0.00001208,0.000018
 46,0.00006218,0.00018556,0.00010090,0.00000254,-0.00008367,-0.00018621
 ,-0.00085013,-0.00041795,0.00125466,0.00030042,-0.00036570,0.00074405,
 0.00100867,0.00806598,0.02564140,-0.00237603,-0.00120422,0.07283285,-0
 .06723232,0.01017718,0.00000012,0.00000005,-0.00000002,-0.00000006,0.,
 0.00000004,-0.00000003,-0.00000024,0.00000014,0.,-0.00000003,0.0000000
 5,0.00000003,-0.00000030,0.00000014,0.,-0.00000006,0.00000005,0.000000
 04,-0.00000032,0.00000013,0.,-0.00000007,0.00000005,0.00000005,-0.0000
 0034,0.00000013,0.,-0.00000008,0.00000003,0.00000006,-0.00000038,0.000
 00013,0.,-0.00000010,0.00000003,0.00000007,-0.00000042,0.00000016,0.,-
 0.00000013,0.00000005,0.00000007,-0.00000047,0.00000019,0.,-0.00000016
 ,0.00000007,0.00000008,-0.00000052,0.00000022,-0.00000002,-0.00000018,
 0.00000008,0.00000026,-0.00000065,0.00000025,-0.00000017,0.00000021,-0
 .00000006,0.00000064,0.00000018,-0.00000014,-0.00000024,-0.00000005,0.
 00000006,0.00000017,-0.00000055,0.00000022,-0.00000006,-0.00000022,0.0
 0000011,0.00000034,-0.00000077,0.00000030,-0.00000017,0.00000031,-0.00
 000009,0.00000085,0.00000024,-0.00000018,-0.00000031,-0.00000012,0.000
 00011,0.00000024,-0.00000072,0.00000029,-0.00000005,-0.00000035,0.0000
 0018,0.00000022,-0.00000096,0.00000041,0.,-0.00000044,0.00000021,0.000
 00022,-0.00000111,0.00000048,0.00000001,-0.00000051,0.00000024,0.00000
 025,-0.00000129,0.00000055,0.00000002,-0.00000060,0.00000028,0.0000002
 8,-0.00000148,0.00000067,-0.00000002,-0.00000063,0.00000044,0.00000077
 ,-0.00000185,0.00000078,-0.00000039,0.00000052,-0.00000033,0.00000188,
 0.00000052,-0.00000044,-0.00000062,-0.00000015,0.00000053,0.00000119,-
 0.00000181,0.00000091,-0.00000037,0.00000068,-0.00000038,0.00000245,0.
 00000055,-0.00000063,-0.00000090,-0.00000021,0.00000065,0.00000170,-0.
 00000231,0.00000134,-0.00000041,0.00000101,-0.00000052,0.00000283,0.00
 000116,-0.00000114,0.00000106,0.00000154,-0.00000027,0.00000384,0.0000
 0189,-0.00000197,0.00000096,0.00000044,-0.00000232,0.00000533,0.000002
 90,-0.00000215,0.00000366,0.00000983,0.00000900,0.00000691,0.00000411,
 -0.00000436,-0.00000989,-0.00002660,-0.00003441,0.00000952,0.00002126,
 0.00000053,-0.00004856,0.00005686,0.00008029,0.00020903,-0.00004213,-0
 .00024006,-0.00095365,-0.00177638,-0.00377427,-0.01562218,0.00651995,0
 .00056525,-0.08402701,0.06433910,-0.00000060,0.00000030,-0.00000007,0.
 00000037,-0.00000074,0.00000026,-0.00000028,0.00000065,-0.00000028,0.0
 0000018,-0.00000077,0.00000030,-0.00000015,0.00000064,-0.00000026,0.00
 000011,-0.00000082,0.00000034,-0.00000010,0.00000066,-0.00000027,0.000
 00006,-0.00000088,0.00000036,-0.00000006,0.00000068,-0.00000028,0.0000
 0005,-0.00000095,0.00000040,-0.00000005,0.00000072,-0.00000029,0.00000
 002,-0.00000103,0.00000043,-0.00000003,0.00000076,-0.00000032,0.,0.000
 00082,-0.00000035,0.,-0.00000111,0.00000047,-0.00000002,-0.00000120,0.
 00000049,0.00000005,0.00000079,-0.00000033,-0.00000015,-0.00000182,0.0
 0000077,0.00000002,0.00000121,-0.00000051,0.00000129,0.00000137,-0.000
 00074,-0.00000108,-0.00000081,0.00000044,0.00000018,-0.00000143,0.0000
 0058,-0.00000019,0.00000097,-0.00000041,-0.00000002,-0.00000239,0.0000
 0099,-0.00000010,0.00000177,-0.00000076,0.00000189,0.00000176,-0.00000
 098,-0.00000168,-0.00000112,0.00000065,0.00000038,-0.00000195,0.000000
 78,-0.00000042,0.00000149,-0.00000062,0.00000022,-0.00000226,0.0000009
 0,-0.00000022,0.00000169,-0.00000072,0.,-0.00000263,0.00000109,-0.0000
 0001,0.00000194,-0.00000088,-0.00000023,-0.00000301,0.00000126,0.00000
 025,0.00000222,-0.00000105,-0.00000049,-0.00000332,0.00000156,0.000000
 60,0.00000228,-0.00000115,-0.00000119,-0.00000572,0.00000232,0.0000005
 1,0.00000322,-0.00000142,0.00000359,0.00000514,-0.00000265,-0.00000264
 ,-0.00000283,0.00000133,-0.00000081,-0.00000678,0.00000343,-0.00000015
 ,0.00000434,-0.00000231,0.00000505,0.00000557,-0.00000460,-0.00000405,
 -0.00000325,0.00000245,-0.00000052,-0.00000809,0.00000627,-0.00000114,
 0.00000482,-0.00000378,0.00000416,0.00000351,-0.00000707,-0.00000410,-
 0.00000459,0.00000492,0.00000591,0.00001451,0.00000003,-0.00000477,-0.
 00001086,0.00000522,-0.00000718,-0.00001534,-0.00005304,-0.00000652,-0
 .00001261,0.00002030,0.00004488,0.00018519,0.00015125,-0.00007057,-0.0
 0007048,-0.00000094,-0.00023046,-0.00043192,-0.00105237,-0.00082396,-0
 .00007905,0.00049143,0.00182811,0.00766331,0.00518647,-0.01745247,0.00
 508060,0.00452009,0.01566549,0.00931579,-0.04225241,-0.00000012,0.,0.0
 0000002,0.00000003,-0.00000002,0.00000002,0.,0.00000012,-0.00000003,0.
 ,0.00000001,0.00000002,-0.00000002,0.00000014,-0.00000005,0.,0.0000000
 3,0.,-0.00000002,0.00000016,-0.00000007,0.,0.00000004,0.,-0.00000003,0
 .00000018,-0.00000008,0.,0.00000005,-0.00000002,-0.00000003,0.00000020
 ,-0.00000009,0.,0.00000007,-0.00000003,-0.00000003,0.00000022,-0.00000
 009,0.,0.00000008,-0.00000003,-0.00000004,0.00000025,-0.00000010,0.,0.
 00000010,-0.00000004,-0.00000004,0.00000028,-0.00000011,0.00000001,0.0
 0000012,-0.00000005,-0.00000013,0.00000033,-0.00000011,0.00000007,-0.0
 0000011,0.00000005,-0.00000034,-0.00000009,0.00000009,0.00000013,0.000
 00004,-0.00000002,-0.00000009,0.00000030,-0.00000010,0.00000003,0.0000
 0014,-0.00000004,-0.00000018,0.00000041,-0.00000014,0.00000008,-0.0000
 0016,0.00000008,-0.00000046,-0.00000012,0.00000012,0.00000017,0.000000
 06,-0.00000002,-0.00000013,0.00000040,-0.00000014,0.00000002,0.0000001
 9,-0.00000005,-0.00000011,0.00000053,-0.00000018,0.,0.00000025,-0.0000
 0007,-0.00000011,0.00000062,-0.00000022,0.,0.00000028,-0.00000008,-0.0
 0000012,0.00000071,-0.00000025,0.,0.00000033,-0.00000006,-0.00000014,0
 .00000081,-0.00000029,0.00000002,0.00000034,-0.00000014,-0.00000041,0.
 00000095,-0.00000031,0.00000018,-0.00000029,0.00000031,-0.00000106,-0.
 00000022,0.00000034,0.00000039,0.00000009,-0.00000011,-0.00000064,0.00
 000098,-0.00000033,0.00000025,-0.00000029,0.00000041,-0.00000140,-0.00
 000016,0.00000052,0.00000062,0.00000026,0.00000002,-0.00000096,0.00000
 137,-0.00000050,0.00000031,-0.00000048,0.00000043,-0.00000152,-0.00000
 032,0.00000100,-0.00000023,0.00000007,0.00000128,-0.00000214,-0.000000
 61,0.00000163,-0.00000093,-0.00000174,-0.00000064,-0.00000296,-0.00000
 036,0.00000281,0.00000284,0.00000950,0.00001446,-0.00000458,-0.0000018
 5,0.00000324,-0.00000985,-0.00003450,-0.00004461,-0.00000331,0.0000050
 4,0.00002179,0.00007419,0.00005014,0.00008728,-0.00032574,-0.00014424,
 -0.00009195,-0.00115600,-0.00383692,-0.00365302,0.01567665,-0.00475256
 ,0.00215138,-0.01318912,-0.01293006,0.03449019\\-0.00000026,-0.0000002
 1,0.00000016,0.00000051,0.00000023,-0.00000014,-0.00000063,-0.00000060
 ,0.00000035,0.00000070,0.00000052,-0.00000034,-0.00000085,-0.00000058,
 0.00000032,0.00000092,0.00000050,-0.00000039,-0.00000092,-0.00000062,0
 .00000032,0.00000096,0.00000051,-0.00000042,-0.00000082,-0.00000062,0.
 00000030,0.00000070,0.00000048,-0.00000039,-0.00000050,-0.00000060,0.0
 0000023,0.00000023,0.00000042,-0.00000034,-0.00000011,-0.00000059,0.00
 000019,0.00000014,-0.00000061,0.00000020,-0.00000026,0.00000041,-0.000
 00025,-0.00000053,0.00000041,-0.00000025,0.00000039,-0.00000052,0.0000
 0020,-0.00000089,0.00000055,-0.00000017,0.00000107,-0.00000076,0.00000
 030,-0.00000149,0.00000109,-0.00000016,0.00000184,-0.00000056,-0.00000
 023,-0.00000120,0.00000006,-0.00000001,0.00000105,-0.00000055,0.000000
 12,-0.00000112,0.00000019,-0.00000038,0.00000126,-0.00000068,0.0000006
 1,-0.00000098,0.00000087,-0.00000057,0.00000130,-0.00000036,-0.0000000
 2,-0.00000129,0.00000009,-0.00000024,0.00000085,-0.00000055,0.00000019
 ,-0.00000110,0.00000035,-0.00000030,0.00000101,-0.00000061,0.00000001,
 -0.00000110,0.00000044,-0.00000018,0.00000099,-0.00000067,0.00000002,-
 0.00000084,0.00000047,-0.00000020,0.00000075,-0.00000062,0.00000019,-0
 .00000045,0.00000031,-0.00000049,-0.00000006,-0.00000049,0.00000049,-0
 .00000015,-0.00000006,-0.00000035,0.00000081,-0.00000036,0.00000085,0.
 00000061,0.00000072,-0.00000046,-0.00000008,0.00000081,-0.00000026,-0.
 00000076,-0.00000047,0.00000057,0.00000013,-0.00000045,0.00000055,0.00
 000152,0.00000056,0.00000099,-0.00000172,0.00000096,-0.00000069,-0.000
 00058,0.00000061,0.00000021,0.00000013,0.00000064,-0.00000088,0.000001
 00,-0.00000155,0.00000105,-0.00000062,0.00000107,-0.00000080,0.0000003
 6,-0.00000115,0.00000093,-0.00000032,0.00000100,-0.00000067,0.00000035
 ,-0.00000110,0.00000084,-0.00000034,0.00000099,-0.00000056,0.00000030,
 -0.00000093,0.00000076,-0.00000030,0.00000089,-0.00000050,0.00000023,-
 0.00000074,0.00000067,-0.00000018,0.00000080,-0.00000043,0.00000002,-0
 .00000059,0.00000058,-0.00000015,0.00000049,-0.00000008,0.00000008,-0.
 00000012,0.00000032,-0.00000010,0.00000002,0.00000008,-0.00000009,0.00
 000006,0.00000011,-0.00000002,-0.00000010,0.00000012,-0.00000002,0.000
 00024,0.00000005,0.00000004,-0.00000019,0.00000016,0.,0.00000024,0.000
 00007,0.00000002,-0.00000018,0.00000016,0.,0.00000027,0.00000006,0.000
 00002,-0.00000019,0.00000016,0.,0.00000031,0.00000004,0.00000006,-0.00
 000018,0.00000014,-0.00000005,0.00000032,0.00000003,0.00000012,-0.0000
 0016,0.00000011,-0.00000010,0.00000031,0.00000003,0.00000018,-0.000000
 11,0.00000007,-0.00000014,0.00000025,0.00000003,0.00000019,-0.00000007
 ,0.,-0.00000008,0.00000009,-0.00000018,0.00000005,-0.00000002,-0.00000
 018,-0.00000013,0.00000023,0.00000002,0.00000004,-0.00000015,0.0000001
 3,-0.00000014,0.00000002,-0.00000002,0.00000035,-0.00000022,-0.0000000
 6,-0.00000012,0.00000030,0.00000004,0.00000012,-0.00000014,-0.00000003
 ,-0.00000016,0.00000030,0.00000050,0.00000014,-0.00000010,-0.00000010,
 -0.00000018,0.00000018,0.00000003,0.00000021,-0.00000035,-0.00000031,-
 0.00000020,0.00000031,0.00000011,0.00000023,-0.00000008,0.00000014,-0.
 00000022,0.00000026,0.00000004,0.00000023,-0.00000013,0.00000006,-0.00
 000022,0.00000024,-0.00000003,0.00000021,-0.00000019,0.,-0.00000023,0.
 00000025,-0.00000012,0.00000020,-0.00000026,-0.00000003,0.,0.00000041,
 0.00000026,-0.00000004,-0.00000022,-0.00000026,-0.00000013,0.00000011,
 -0.00000028,-0.00000005,-0.00000050,-0.00000059,-0.00000056,-0.0000002
 4,-0.00000023,0.00000026,-0.00000004,-0.00000031,0.,-0.00000023,-0.000
 00086,0.00000037,-0.00000058,-0.00000005,-0.00000038,-0.00000060,-0.00
 000070,0.00000003,0.00000020,-0.00000025,0.00000006,-0.00000010,0.0000
 0007,0.00000006,0.00000053,0.00000023,-0.00000014,-0.00000005,-0.00000
 005,0.00000018,0.00000009,-0.00000016,-0.00000012,-0.00000003,0.,0.000
 00021,0.00000016,-0.00000015,-0.00000012,-0.00000004,0.00000006,0.0000
 0021,0.00000019,-0.00000011,-0.00000012,-0.00000003,0.00000010,0.00000
 020,0.00000018,-0.00000005,-0.00000013,0.,0.00000012,0.00000021,0.0000
 0017,0.00000001,-0.00000003,0.00000001,0.00000008,0.00000014,0.0000000
 4,0.00000014,0.00000010,0.00000005,0.00000012\\\@


 ART, GLORY, FREEDOM FAIL, BUT NATURE STILL IS FAIR.

                                           -- BYRON
 Job cpu time:       0 days  8 hours 27 minutes 11.2 seconds.
 Elapsed time:       0 days  8 hours 27 minutes 16.7 seconds.
 File lengths (MBytes):  RWF=  16463 Int=      0 D2E=      0 Chk=    122 Scr=      1
 Normal termination of Gaussian 16 at Wed Nov  1 02:38:40 2023.
