 Entering Gaussian System, Link 0=g16
 Input=./com/4.com
 Output=./log/4.log
 Initial command:
 /home/shohei/gaussian/g16/l1.exe "/home/shohei/gaussian/scratch/Gau-13184.inp" -scrdir="/home/shohei/gaussian/scratch/"
 Entering Link 1 = /home/shohei/gaussian/g16/l1.exe PID=     13186.
  
 Copyright (c) 1988-2017, Gaussian, Inc.  All Rights Reserved.
  
 This is part of the Gaussian(R) 16 program.  It is based on
 the Gaussian(R) 09 system (copyright 2009, Gaussian, Inc.),
 the Gaussian(R) 03 system (copyright 2003, Gaussian, Inc.),
 the Gaussian(R) 98 system (copyright 1998, Gaussian, Inc.),
 the Gaussian(R) 94 system (copyright 1995, Gaussian, Inc.),
 the Gaussian 92(TM) system (copyright 1992, Gaussian, Inc.),
 the Gaussian 90(TM) system (copyright 1990, Gaussian, Inc.),
 the Gaussian 88(TM) system (copyright 1988, Gaussian, Inc.),
 the Gaussian 86(TM) system (copyright 1986, Carnegie Mellon
 University), and the Gaussian 82(TM) system (copyright 1983,
 Carnegie Mellon University). Gaussian is a federally registered
 trademark of Gaussian, Inc.
  
 This software contains proprietary and confidential information,
 including trade secrets, belonging to Gaussian, Inc.
  
 This software is provided under written license and may be
 used, copied, transmitted, or stored only in accord with that
 written license.
  
 The following legend is applicable only to US Government
 contracts under FAR:
  
                    RESTRICTED RIGHTS LEGEND
  
 Use, reproduction and disclosure by the US Government is
 subject to restrictions as set forth in subparagraphs (a)
 and (c) of the Commercial Computer Software - Restricted
 Rights clause in FAR 52.227-19.
  
 Gaussian, Inc.
 340 Quinnipiac St., Bldg. 40, Wallingford CT 06492
  
  
 ---------------------------------------------------------------
 Warning -- This program may not be used in any manner that
 competes with the business of Gaussian, Inc. or will provide
 assistance to any competitor of Gaussian, Inc.  The licensee
 of this program is prohibited from giving any competitor of
 Gaussian, Inc. access to this program.  By using this program,
 the user acknowledges that Gaussian, Inc. is engaged in the
 business of creating and licensing software in the field of
 computational chemistry and represents and warrants to the
 licensee that it is not a competitor of Gaussian, Inc. and that
 it will not use this program in any manner prohibited above.
 ---------------------------------------------------------------
  

 Cite this work as:
 Gaussian 16, Revision B.01,
 M. J. Frisch, G. W. Trucks, H. B. Schlegel, G. E. Scuseria, 
 M. A. Robb, J. R. Cheeseman, G. Scalmani, V. Barone, 
 G. A. Petersson, H. Nakatsuji, X. Li, M. Caricato, A. V. Marenich, 
 J. Bloino, B. G. Janesko, R. Gomperts, B. Mennucci, H. P. Hratchian, 
 J. V. Ortiz, A. F. Izmaylov, J. L. Sonnenberg, D. Williams-Young, 
 F. Ding, F. Lipparini, F. Egidi, J. Goings, B. Peng, A. Petrone, 
 T. Henderson, D. Ranasinghe, V. G. Zakrzewski, J. Gao, N. Rega, 
 G. Zheng, W. Liang, M. Hada, M. Ehara, K. Toyota, R. Fukuda, 
 J. Hasegawa, M. Ishida, T. Nakajima, Y. Honda, O. Kitao, H. Nakai, 
 T. Vreven, K. Throssell, J. A. Montgomery, Jr., J. E. Peralta, 
 F. Ogliaro, M. J. Bearpark, J. J. Heyd, E. N. Brothers, K. N. Kudin, 
 V. N. Staroverov, T. A. Keith, R. Kobayashi, J. Normand, 
 K. Raghavachari, A. P. Rendell, J. C. Burant, S. S. Iyengar, 
 J. Tomasi, M. Cossi, J. M. Millam, M. Klene, C. Adamo, R. Cammi, 
 J. W. Ochterski, R. L. Martin, K. Morokuma, O. Farkas, 
 J. B. Foresman, and D. J. Fox, Gaussian, Inc., Wallingford CT, 2016.
 
 ******************************************
 Gaussian 16:  EM64L-G16RevB.01 20-Dec-2017
                27-Oct-2023 
 ******************************************
 %chk=./chk/4.chk
 ---------------------------
 # B3LYP/6-31G(d,p) OPT FREQ
 ---------------------------
 1/18=20,19=15,26=3,38=1/1,3;
 2/9=110,12=2,17=6,18=5,40=1/2;
 3/5=1,6=6,7=101,11=2,25=1,30=1,71=1,74=-5/1,2,3;
 4//1;
 5/5=2,38=5/2;
 6/7=2,8=2,9=2,10=2,28=1/1;
 7//1,2,3,16;
 1/18=20,19=15,26=3/3(2);
 2/9=110/2;
 99//99;
 2/9=110/2;
 3/5=1,6=6,7=101,11=2,25=1,30=1,71=1,74=-5/1,2,3;
 4/5=5,16=3,69=1/1;
 5/5=2,38=5/2;
 7//1,2,3,16;
 1/18=20,19=15,26=3/3(-5);
 2/9=110/2;
 6/7=2,8=2,9=2,10=2,19=2,28=1/1;
 99/9=1/99;
 -----
 4poly
 -----
 Symbolic Z-matrix:
 Charge =  0 Multiplicity = 1
 C                     18.91572  -7.77581  -0.26028 
 C                     19.51876  -8.5683    0.62883 
 C                     20.93885  -8.94561   0.47584 
 C                     21.53982  -9.74148   1.37016 
 C                     22.96029  -10.11945   1.2175 
 C                     23.56104  -10.91594   2.11143 
 C                     24.98099  -11.29367   1.95819 
 C                     25.58352  -12.08757   2.84638 
 H                     19.45191  -7.38633  -1.12071 
 H                     18.94804  -8.93784   1.47661 
 H                     21.49997  -8.56946  -0.37667 
 H                     20.97792  -10.11728   2.22231 
 H                     23.52227  -9.74342   0.36551 
 H                     22.99976  -11.29251   2.96364 
 H                     25.55198  -10.92341   1.1109 
 H                     25.04702  -12.47791   3.70622 
 H                     26.62754  -12.35325   2.71546 
 H                     17.87158  -7.51053  -0.12959 
 

 GradGradGradGradGradGradGradGradGradGradGradGradGradGradGradGradGradGrad
 Berny optimization.
 Initialization pass.
                           ----------------------------
                           !    Initial Parameters    !
                           ! (Angstroms and Degrees)  !
 --------------------------                            --------------------------
 ! Name  Definition              Value          Derivative Info.                !
 --------------------------------------------------------------------------------
 ! R1    R(1,2)                  1.335          estimate D2E/DX2                !
 ! R2    R(1,9)                  1.0861         estimate D2E/DX2                !
 ! R3    R(1,18)                 1.0852         estimate D2E/DX2                !
 ! R4    R(2,3)                  1.4773         estimate D2E/DX2                !
 ! R5    R(2,10)                 1.0867         estimate D2E/DX2                !
 ! R6    R(3,4)                  1.3395         estimate D2E/DX2                !
 ! R7    R(3,11)                 1.0877         estimate D2E/DX2                !
 ! R8    R(4,5)                  1.4778         estimate D2E/DX2                !
 ! R9    R(4,12)                 1.0877         estimate D2E/DX2                !
 ! R10   R(5,6)                  1.3395         estimate D2E/DX2                !
 ! R11   R(5,13)                 1.0877         estimate D2E/DX2                !
 ! R12   R(6,7)                  1.4773         estimate D2E/DX2                !
 ! R13   R(6,14)                 1.0877         estimate D2E/DX2                !
 ! R14   R(7,8)                  1.335          estimate D2E/DX2                !
 ! R15   R(7,15)                 1.0867         estimate D2E/DX2                !
 ! R16   R(8,16)                 1.0861         estimate D2E/DX2                !
 ! R17   R(8,17)                 1.0852         estimate D2E/DX2                !
 ! A1    A(2,1,9)              121.1656         estimate D2E/DX2                !
 ! A2    A(2,1,18)             119.9688         estimate D2E/DX2                !
 ! A3    A(9,1,18)             118.8655         estimate D2E/DX2                !
 ! A4    A(1,2,3)              121.1223         estimate D2E/DX2                !
 ! A5    A(1,2,10)             118.9593         estimate D2E/DX2                !
 ! A6    A(3,2,10)             119.9185         estimate D2E/DX2                !
 ! A7    A(2,3,4)              120.9213         estimate D2E/DX2                !
 ! A8    A(2,3,11)             119.2576         estimate D2E/DX2                !
 ! A9    A(4,3,11)             119.821          estimate D2E/DX2                !
 ! A10   A(3,4,5)              120.9451         estimate D2E/DX2                !
 ! A11   A(3,4,12)             119.7727         estimate D2E/DX2                !
 ! A12   A(5,4,12)             119.2822         estimate D2E/DX2                !
 ! A13   A(4,5,6)              120.9444         estimate D2E/DX2                !
 ! A14   A(4,5,13)             119.2826         estimate D2E/DX2                !
 ! A15   A(6,5,13)             119.773          estimate D2E/DX2                !
 ! A16   A(5,6,7)              120.9219         estimate D2E/DX2                !
 ! A17   A(5,6,14)             119.8208         estimate D2E/DX2                !
 ! A18   A(7,6,14)             119.2573         estimate D2E/DX2                !
 ! A19   A(6,7,8)              121.1219         estimate D2E/DX2                !
 ! A20   A(6,7,15)             119.9186         estimate D2E/DX2                !
 ! A21   A(8,7,15)             118.9594         estimate D2E/DX2                !
 ! A22   A(7,8,16)             121.1656         estimate D2E/DX2                !
 ! A23   A(7,8,17)             119.969          estimate D2E/DX2                !
 ! A24   A(16,8,17)            118.8655         estimate D2E/DX2                !
 ! D1    D(9,1,2,3)             -0.0004         estimate D2E/DX2                !
 ! D2    D(9,1,2,10)          -179.9956         estimate D2E/DX2                !
 ! D3    D(18,1,2,3)           179.9961         estimate D2E/DX2                !
 ! D4    D(18,1,2,10)            0.0009         estimate D2E/DX2                !
 ! D5    D(1,2,3,4)           -179.975          estimate D2E/DX2                !
 ! D6    D(1,2,3,11)             0.016          estimate D2E/DX2                !
 ! D7    D(10,2,3,4)             0.0202         estimate D2E/DX2                !
 ! D8    D(10,2,3,11)         -179.9888         estimate D2E/DX2                !
 ! D9    D(2,3,4,5)            179.9885         estimate D2E/DX2                !
 ! D10   D(2,3,4,12)            -0.0011         estimate D2E/DX2                !
 ! D11   D(11,3,4,5)            -0.0025         estimate D2E/DX2                !
 ! D12   D(11,3,4,12)         -179.9921         estimate D2E/DX2                !
 ! D13   D(3,4,5,6)           -179.9619         estimate D2E/DX2                !
 ! D14   D(3,4,5,13)             0.0277         estimate D2E/DX2                !
 ! D15   D(12,4,5,6)             0.0277         estimate D2E/DX2                !
 ! D16   D(12,4,5,13)         -179.9827         estimate D2E/DX2                !
 ! D17   D(4,5,6,7)            179.9885         estimate D2E/DX2                !
 ! D18   D(4,5,6,14)            -0.0025         estimate D2E/DX2                !
 ! D19   D(13,5,6,7)            -0.0011         estimate D2E/DX2                !
 ! D20   D(13,5,6,14)         -179.9921         estimate D2E/DX2                !
 ! D21   D(5,6,7,8)           -179.975          estimate D2E/DX2                !
 ! D22   D(5,6,7,15)             0.0202         estimate D2E/DX2                !
 ! D23   D(14,6,7,8)             0.016          estimate D2E/DX2                !
 ! D24   D(14,6,7,15)         -179.9888         estimate D2E/DX2                !
 ! D25   D(6,7,8,16)            -0.0004         estimate D2E/DX2                !
 ! D26   D(6,7,8,17)           179.9961         estimate D2E/DX2                !
 ! D27   D(15,7,8,16)         -179.9956         estimate D2E/DX2                !
 ! D28   D(15,7,8,17)            0.0009         estimate D2E/DX2                !
 --------------------------------------------------------------------------------
 Trust Radius=3.00D-01 FncErr=1.00D-07 GrdErr=1.00D-06 EigMax=2.50D+02 EigMin=1.00D-04
 Number of steps in this run=     79 maximum allowed number of steps=    108.
 GradGradGradGradGradGradGradGradGradGradGradGradGradGradGradGradGradGrad

                          Input orientation:                          
 ---------------------------------------------------------------------
 Center     Atomic      Atomic             Coordinates (Angstroms)
 Number     Number       Type             X           Y           Z
 ---------------------------------------------------------------------
      1          6           0       18.915724   -7.775811   -0.260279
      2          6           0       19.518765   -8.568301    0.628829
      3          6           0       20.938854   -8.945608    0.475839
      4          6           0       21.539819   -9.741480    1.370164
      5          6           0       22.960294  -10.119451    1.217500
      6          6           0       23.561040  -10.915938    2.111427
      7          6           0       24.980989  -11.293670    1.958190
      8          6           0       25.583524  -12.087573    2.846381
      9          1           0       19.451906   -7.386332   -1.120712
     10          1           0       18.948044   -8.937843    1.476611
     11          1           0       21.499971   -8.569462   -0.376672
     12          1           0       20.977924  -10.117282    2.222307
     13          1           0       23.522273   -9.743423    0.365512
     14          1           0       22.999761  -11.292515    2.963641
     15          1           0       25.551976  -10.923413    1.110900
     16          1           0       25.047022  -12.477913    3.706224
     17          1           0       26.627542  -12.353249    2.715465
     18          1           0       17.871577   -7.510531   -0.129588
 ---------------------------------------------------------------------
                    Distance matrix (angstroms):
                    1          2          3          4          5
     1  C    0.000000
     2  C    1.334996   0.000000
     3  C    2.450174   1.477302   0.000000
     4  C    3.661704   2.451650   1.339548   0.000000
     5  C    4.902554   3.820566   2.452385   1.477809   0.000000
     6  C    6.088049   4.904027   3.665134   2.452377   1.339549
     7  C    7.354208   6.247457   4.904040   3.820565   2.451656
     8  C    8.526558   7.354190   6.088052   4.902542   3.661706
     9  H    1.086062   2.112443   2.681666   4.013797   5.024536
    10  H    2.090012   1.086746   2.228213   2.715596   4.190643
    11  H    2.705876   2.221759   1.087710   2.103961   2.660149
    12  H    3.987278   2.658507   2.103449   1.087704   2.222484
    13  H    5.048109   4.180709   2.706055   2.222488   1.087704
    14  H    6.280145   4.999002   3.993052   2.660133   2.103959
    15  H    7.471771   6.494504   5.059239   4.190654   2.715608
    16  H    8.685375   7.437544   6.307901   5.024512   4.013792
    17  H    9.448816   8.319531   6.999222   5.875040   4.547797
    18  H    1.085217   2.099358   3.440084   4.547790   5.875045
                    6          7          8          9         10
     6  C    0.000000
     7  C    1.477301   0.000000
     8  C    2.450170   1.334996   0.000000
     9  H    6.307917   7.437586   8.685404   0.000000
    10  H    5.059207   6.494479   7.471725   3.067108   0.000000
    11  H    3.993067   4.999037   6.280174   2.479509   3.175326
    12  H    2.706036   4.180691   5.048076   4.578493   2.463240
    13  H    2.103453   2.658522   3.987293   4.932811   4.775675
    14  H    1.087710   2.221755   2.705864   6.672891   4.916518
    15  H    2.228213   1.086745   2.090013   7.396072   6.905660
    16  H    2.681658   2.112444   1.086062   8.973786   7.396000
    17  H    3.440082   2.099360   1.085217   9.532905   8.495555
    18  H    6.999209   8.319537   9.448801   1.869543   2.403306
                   11         12         13         14         15
    11  H    0.000000
    12  H    3.069686   0.000000
    13  H    2.453309   3.171935   0.000000
    14  H    4.563121   2.453278   3.069687   0.000000
    15  H    4.916574   4.775670   2.463265   3.175324   0.000000
    16  H    6.672901   4.932763   4.578500   2.479492   3.067109
    17  H    7.083102   6.095977   4.687874   3.787815   2.403311
    18  H    3.787826   4.687852   6.096007   7.083060   8.495593
                   16         17         18
    16  H    0.000000
    17  H    1.869542   0.000000
    18  H    9.532857  10.402556   0.000000
 Stoichiometry    C8H10
 Framework group  C1[X(C8H10)]
 Deg. of freedom    48
 Full point group                 C1      NOp   1
 Largest Abelian subgroup         C1      NOp   1
 Largest concise Abelian subgroup C1      NOp   1
                         Standard orientation:                         
 ---------------------------------------------------------------------
 Center     Atomic      Atomic             Coordinates (Angstroms)
 Number     Number       Type             X           Y           Z
 ---------------------------------------------------------------------
      1          6           0        4.257708    0.217934    0.000836
      2          6           0        3.093286   -0.435010   -0.000043
      3          6           0        1.808734    0.294611   -0.000298
      4          6           0        0.642646   -0.364653   -0.000680
      5          6           0       -0.642649    0.364686   -0.000680
      6          6           0       -1.808730   -0.294591   -0.000298
      7          6           0       -3.093296    0.435003   -0.000043
      8          6           0       -4.257701   -0.217971    0.000836
      9          1           0        4.293419    1.303408    0.001382
     10          1           0        3.099395   -1.521739   -0.000497
     11          1           0        1.815166    1.382302   -0.000024
     12          1           0        0.637133   -1.452343   -0.000823
     13          1           0       -0.637142    1.452377   -0.000823
     14          1           0       -1.815145   -1.382282   -0.000024
     15          1           0       -3.099430    1.521732   -0.000497
     16          1           0       -4.293382   -1.303447    0.001382
     17          1           0       -5.190360    0.336864    0.001073
     18          1           0        5.190351   -0.336928    0.001073
 ---------------------------------------------------------------------
 Rotational constants (GHZ):          18.4595028           0.5799454           0.5622802
 Standard basis: 6-31G(d,p) (6D, 7F)
 There are   170 symmetry adapted cartesian basis functions of A   symmetry.
 There are   170 symmetry adapted basis functions of A   symmetry.
   170 basis functions,   294 primitive gaussians,   170 cartesian basis functions
    29 alpha electrons       29 beta electrons
       nuclear repulsion energy       298.1732902429 Hartrees.
 NAtoms=   18 NActive=   18 NUniq=   18 SFac= 1.00D+00 NAtFMM=   60 NAOKFM=F Big=F
 Integral buffers will be    131072 words long.
 Raffenetti 2 integral format.
 Two-electron integral symmetry is turned on.
 One-electron integrals computed using PRISM.
 NBasis=   170 RedAO= T EigKep=  1.82D-03  NBF=   170
 NBsUse=   170 1.00D-06 EigRej= -1.00D+00 NBFU=   170
 ExpMin= 1.61D-01 ExpMax= 3.05D+03 ExpMxC= 4.57D+02 IAcc=3 IRadAn=         5 AccDes= 0.00D+00
 Harris functional with IExCor=  402 and IRadAn=       5 diagonalized for initial guess.
 HarFok:  IExCor=  402 AccDes= 0.00D+00 IRadAn=         5 IDoV= 1 UseB2=F ITyADJ=14
 ICtDFT=  3500011 ScaDFX=  1.000000  1.000000  1.000000  1.000000
 FoFCou: FMM=F IPFlag=           0 FMFlag=      100000 FMFlg1=           0
         NFxFlg=           0 DoJE=T BraDBF=F KetDBF=T FulRan=T
         wScrn=  0.000000 ICntrl=       500 IOpCl=  0 I1Cent=   200000004 NGrid=           0
         NMat0=    1 NMatS0=      1 NMatT0=    0 NMatD0=    1 NMtDS0=    0 NMtDT0=    0
 Petite list used in FoFCou.
 Requested convergence on RMS density matrix=1.00D-08 within 128 cycles.
 Requested convergence on MAX density matrix=1.00D-06.
 Requested convergence on             energy=1.00D-06.
 No special actions if energy rises.
 Integral accuracy reduced to 1.0D-05 until final iterations.
 Initial convergence to 1.0D-05 achieved.  Increase integral accuracy.
 SCF Done:  E(RB3LYP) =  -310.815370496     A.U. after   13 cycles
            NFock= 13  Conv=0.27D-08     -V/T= 2.0100

 **********************************************************************

            Population analysis using the SCF Density.

 **********************************************************************

 Orbital symmetries:
       Occupied  (A) (A) (A) (A) (A) (A) (A) (A) (A) (A) (A) (A)
                 (A) (A) (A) (A) (A) (A) (A) (A) (A) (A) (A) (A)
                 (A) (A) (A) (A) (A)
       Virtual   (A) (A) (A) (A) (A) (A) (A) (A) (A) (A) (A) (A)
                 (A) (A) (A) (A) (A) (A) (A) (A) (A) (A) (A) (A)
                 (A) (A) (A) (A) (A) (A) (A) (A) (A) (A) (A) (A)
                 (A) (A) (A) (A) (A) (A) (A) (A) (A) (A) (A) (A)
                 (A) (A) (A) (A) (A) (A) (A) (A) (A) (A) (A) (A)
                 (A) (A) (A) (A) (A) (A) (A) (A) (A) (A) (A) (A)
                 (A) (A) (A) (A) (A) (A) (A) (A) (A) (A) (A) (A)
                 (A) (A) (A) (A) (A) (A) (A) (A) (A) (A) (A) (A)
                 (A) (A) (A) (A) (A) (A) (A) (A) (A) (A) (A) (A)
                 (A) (A) (A) (A) (A) (A) (A) (A) (A) (A) (A) (A)
                 (A) (A) (A) (A) (A) (A) (A) (A) (A) (A) (A) (A)
                 (A) (A) (A) (A) (A) (A) (A) (A) (A)
 The electronic state is 1-A.
 Alpha  occ. eigenvalues --  -10.19189 -10.19189 -10.19149 -10.19122 -10.19014
 Alpha  occ. eigenvalues --  -10.19010 -10.17981 -10.17981  -0.82155  -0.79573
 Alpha  occ. eigenvalues --   -0.75642  -0.71078  -0.61581  -0.56539  -0.56034
 Alpha  occ. eigenvalues --   -0.54724  -0.48099  -0.46421  -0.44798  -0.41252
 Alpha  occ. eigenvalues --   -0.39646  -0.37955  -0.37377  -0.35746  -0.34313
 Alpha  occ. eigenvalues --   -0.33809  -0.31071  -0.26030  -0.19959
 Alpha virt. eigenvalues --   -0.04740   0.02091   0.07571   0.09287   0.09743
 Alpha virt. eigenvalues --    0.12302   0.12633   0.12692   0.14952   0.15312
 Alpha virt. eigenvalues --    0.16812   0.19784   0.19901   0.20014   0.29229
 Alpha virt. eigenvalues --    0.32137   0.33395   0.36268   0.36770   0.38812
 Alpha virt. eigenvalues --    0.41507   0.47356   0.50452   0.52142   0.54062
 Alpha virt. eigenvalues --    0.56716   0.57348   0.58993   0.59079   0.59972
 Alpha virt. eigenvalues --    0.60905   0.62656   0.64638   0.64641   0.65710
 Alpha virt. eigenvalues --    0.68701   0.70103   0.71761   0.72842   0.79644
 Alpha virt. eigenvalues --    0.82485   0.83507   0.84377   0.85153   0.86639
 Alpha virt. eigenvalues --    0.87742   0.87805   0.91499   0.92074   0.92970
 Alpha virt. eigenvalues --    0.96032   1.02581   1.04795   1.05610   1.07544
 Alpha virt. eigenvalues --    1.09835   1.13467   1.22919   1.23919   1.30501
 Alpha virt. eigenvalues --    1.30537   1.30871   1.31563   1.33299   1.36693
 Alpha virt. eigenvalues --    1.39164   1.40277   1.42108   1.45817   1.49679
 Alpha virt. eigenvalues --    1.50035   1.51795   1.76264   1.76809   1.76863
 Alpha virt. eigenvalues --    1.86064   1.86133   1.86266   1.93202   1.93970
 Alpha virt. eigenvalues --    1.95699   1.95814   1.97213   1.99838   2.02890
 Alpha virt. eigenvalues --    2.05625   2.06301   2.13691   2.13700   2.17071
 Alpha virt. eigenvalues --    2.18377   2.20635   2.22835   2.26520   2.29220
 Alpha virt. eigenvalues --    2.33095   2.41423   2.41940   2.45206   2.48509
 Alpha virt. eigenvalues --    2.48693   2.48834   2.49454   2.52676   2.53793
 Alpha virt. eigenvalues --    2.58930   2.59731   2.61175   2.62450   2.63630
 Alpha virt. eigenvalues --    2.67293   2.68698   2.70837   2.71415   2.73335
 Alpha virt. eigenvalues --    2.75139   2.85844   2.86488   2.88424   2.94107
 Alpha virt. eigenvalues --    2.95472   2.99072   2.99747   3.27813   3.28152
 Alpha virt. eigenvalues --    3.36305   3.38978   3.43134   3.49667   3.59439
 Alpha virt. eigenvalues --    3.61963   3.70680   3.71049   4.13650   4.14344
 Alpha virt. eigenvalues --    4.16583   4.23276   4.30687   4.44835   4.60116
 Alpha virt. eigenvalues --    4.71953
          Condensed to atoms (all electrons):
               1          2          3          4          5          6
     1  C    4.964576   0.619138  -0.031352   0.002689  -0.000277   0.000005
     2  C    0.619138   4.740623   0.419760  -0.019812   0.004022  -0.000267
     3  C   -0.031352   0.419760   4.860941   0.577588  -0.017519   0.002461
     4  C    0.002689  -0.019812   0.577588   4.874690   0.388530  -0.017518
     5  C   -0.000277   0.004022  -0.017519   0.388530   4.874693   0.577588
     6  C    0.000005  -0.000267   0.002461  -0.017518   0.577588   4.860939
     7  C   -0.000000   0.000002  -0.000267   0.004022  -0.019813   0.419760
     8  C   -0.000000  -0.000000   0.000005  -0.000277   0.002689  -0.031352
     9  H    0.382791  -0.035948  -0.012717   0.000561  -0.000000  -0.000000
    10  H   -0.050920   0.382059  -0.047462  -0.005744   0.000268  -0.000005
    11  H   -0.005154  -0.046668   0.379632  -0.051194  -0.009477   0.000540
    12  H    0.000487  -0.009046  -0.053491   0.381657  -0.048118  -0.005195
    13  H   -0.000003   0.000240  -0.005195  -0.048117   0.381656  -0.053491
    14  H    0.000000  -0.000003   0.000540  -0.009477  -0.051195   0.379632
    15  H    0.000000  -0.000000  -0.000005   0.000268  -0.005744  -0.047462
    16  H    0.000000   0.000000  -0.000000  -0.000000   0.000561  -0.012718
    17  H   -0.000000   0.000000  -0.000000   0.000003  -0.000224   0.004037
    18  H    0.369536  -0.020440   0.004037  -0.000224   0.000003  -0.000000
               7          8          9         10         11         12
     1  C   -0.000000  -0.000000   0.382791  -0.050920  -0.005154   0.000487
     2  C    0.000002  -0.000000  -0.035948   0.382059  -0.046668  -0.009046
     3  C   -0.000267   0.000005  -0.012717  -0.047462   0.379632  -0.053491
     4  C    0.004022  -0.000277   0.000561  -0.005744  -0.051194   0.381657
     5  C   -0.019813   0.002689  -0.000000   0.000268  -0.009477  -0.048118
     6  C    0.419760  -0.031352  -0.000000  -0.000005   0.000540  -0.005195
     7  C    4.740624   0.619138   0.000000  -0.000000  -0.000003   0.000240
     8  C    0.619138   4.964575   0.000000   0.000000   0.000000  -0.000003
     9  H    0.000000   0.000000   0.601230   0.005972   0.004583   0.000014
    10  H   -0.000000   0.000000   0.005972   0.631209   0.004334   0.004180
    11  H   -0.000003   0.000000   0.004583   0.004334   0.631150   0.006045
    12  H    0.000240  -0.000003   0.000014   0.004180   0.006045   0.633091
    13  H   -0.009045   0.000487   0.000001   0.000005   0.004059   0.004263
    14  H   -0.046668  -0.005154  -0.000000   0.000001   0.000013   0.004059
    15  H    0.382059  -0.050920  -0.000000  -0.000000   0.000001   0.000005
    16  H   -0.035948   0.382791   0.000000  -0.000000  -0.000000   0.000001
    17  H   -0.020440   0.369536  -0.000000  -0.000000  -0.000000   0.000000
    18  H    0.000000  -0.000000  -0.042342  -0.008090   0.000025  -0.000008
              13         14         15         16         17         18
     1  C   -0.000003   0.000000   0.000000   0.000000  -0.000000   0.369536
     2  C    0.000240  -0.000003  -0.000000   0.000000   0.000000  -0.020440
     3  C   -0.005195   0.000540  -0.000005  -0.000000  -0.000000   0.004037
     4  C   -0.048117  -0.009477   0.000268  -0.000000   0.000003  -0.000224
     5  C    0.381656  -0.051195  -0.005744   0.000561  -0.000224   0.000003
     6  C   -0.053491   0.379632  -0.047462  -0.012718   0.004037  -0.000000
     7  C   -0.009045  -0.046668   0.382059  -0.035948  -0.020440   0.000000
     8  C    0.000487  -0.005154  -0.050920   0.382791   0.369536  -0.000000
     9  H    0.000001  -0.000000  -0.000000   0.000000  -0.000000  -0.042342
    10  H    0.000005   0.000001  -0.000000  -0.000000  -0.000000  -0.008090
    11  H    0.004059   0.000013   0.000001  -0.000000  -0.000000   0.000025
    12  H    0.004263   0.004059   0.000005   0.000001   0.000000  -0.000008
    13  H    0.633090   0.006045   0.004180   0.000014  -0.000008   0.000000
    14  H    0.006045   0.631151   0.004334   0.004583   0.000025  -0.000000
    15  H    0.004180   0.004334   0.631209   0.005972  -0.008089  -0.000000
    16  H    0.000014   0.004583   0.005972   0.601230  -0.042342  -0.000000
    17  H   -0.000008   0.000025  -0.008089  -0.042342   0.601711   0.000000
    18  H    0.000000  -0.000000  -0.000000  -0.000000   0.000000   0.601712
 Mulliken charges:
               1
     1  C   -0.251514
     2  C   -0.033660
     3  C   -0.076954
     4  C   -0.077645
     5  C   -0.077644
     6  C   -0.076955
     7  C   -0.033659
     8  C   -0.251513
     9  H    0.095855
    10  H    0.084193
    11  H    0.082115
    12  H    0.081818
    13  H    0.081819
    14  H    0.082115
    15  H    0.084193
    16  H    0.095855
    17  H    0.095791
    18  H    0.095791
 Sum of Mulliken charges =  -0.00000
 Mulliken charges with hydrogens summed into heavy atoms:
               1
     1  C   -0.059868
     2  C    0.050533
     3  C    0.005161
     4  C    0.004174
     5  C    0.004175
     6  C    0.005160
     7  C    0.050534
     8  C   -0.059867
 Electronic spatial extent (au):  <R**2>=           1947.7932
 Charge=              0.0000 electrons
 Dipole moment (field-independent basis, Debye):
    X=             -0.0000    Y=              0.0000    Z=              0.0003  Tot=              0.0003
 Quadrupole moment (field-independent basis, Debye-Ang):
   XX=            -46.1161   YY=            -43.0656   ZZ=            -53.6215
   XY=             -0.4925   XZ=              0.0000   YZ=              0.0000
 Traceless Quadrupole moment (field-independent basis, Debye-Ang):
   XX=              1.4850   YY=              4.5355   ZZ=             -6.0204
   XY=             -0.4925   XZ=              0.0000   YZ=              0.0000
 Octapole moment (field-independent basis, Debye-Ang**2):
  XXX=             -0.0007  YYY=              0.0001  ZZZ=             -0.0006  XYY=              0.0000
  XXY=              0.0001  XXZ=              0.0208  XZZ=             -0.0000  YZZ=              0.0000
  YYZ=             -0.0001  XYZ=              0.0100
 Hexadecapole moment (field-independent basis, Debye-Ang**3):
 XXXX=          -2364.0859 YYYY=           -134.1488 ZZZZ=            -55.5614 XXXY=            -22.6045
 XXXZ=              0.0000 YYYX=              0.6462 YYYZ=             -0.0000 ZZZX=              0.0000
 ZZZY=              0.0000 XXYY=           -403.2046 XXZZ=           -476.4468 YYZZ=            -35.5903
 XXYZ=              0.0000 YYXZ=              0.0000 ZZXY=             -0.0931
 N-N= 2.981732902429D+02 E-N=-1.315026769601D+03  KE= 3.077275817395D+02
 Calling FoFJK, ICntrl=      2127 FMM=F ISym2X=0 I1Cent= 0 IOpClX= 0 NMat=1 NMatS=1 NMatT=0.
 ***** Axes restored to original set *****
 -------------------------------------------------------------------
 Center     Atomic                   Forces (Hartrees/Bohr)
 Number     Number              X              Y              Z
 -------------------------------------------------------------------
      1        6          -0.008578654    0.002894718   -0.000004706
      2        6           0.020834625    0.001502907   -0.012862041
      3        6          -0.029252783    0.003062775    0.010256921
      4        6           0.032107731   -0.004009151   -0.010281289
      5        6          -0.032107042    0.004010137    0.010282022
      6        6           0.029252723   -0.003063020   -0.010256782
      7        6          -0.020836496   -0.001507536    0.012858736
      8        6           0.008576964   -0.002898679    0.000002465
      9        1          -0.002105763    0.001096879   -0.000579744
     10        1           0.003983483   -0.002823981    0.002235623
     11        1          -0.002926031    0.001596226   -0.000915005
     12        1           0.002694858   -0.001509101    0.000906780
     13        1          -0.002694111    0.001511620   -0.000904835
     14        1           0.002926611   -0.001594167    0.000916529
     15        1          -0.003981480    0.002829114   -0.002232554
     16        1           0.002106599   -0.001094719    0.000580800
     17        1           0.000013596   -0.002477447    0.003721015
     18        1          -0.000014830    0.002473424   -0.003723934
 -------------------------------------------------------------------
 Cartesian Forces:  Max     0.032107731 RMS     0.010334830

 GradGradGradGradGradGradGradGradGradGradGradGradGradGradGradGradGradGrad
 Berny optimization.
 FormGI is forming the generalized inverse of G from B-inverse, IUseBI=4.
 Internal  Forces:  Max     0.017660777 RMS     0.006776691
 Search for a local minimum.
 Step number   1 out of a maximum of   79
 All quantities printed in internal units (Hartrees-Bohrs-Radians)
 Mixed Optimization -- RFO/linear search
 Second derivative matrix not updated -- first step.
 ITU=  0
     Eigenvalues ---    0.01059   0.01066   0.01066   0.01978   0.01978
     Eigenvalues ---    0.01982   0.01982   0.01999   0.01999   0.02888
     Eigenvalues ---    0.02888   0.02949   0.02949   0.02949   0.02949
     Eigenvalues ---    0.16000   0.16000   0.16000   0.16000   0.16000
     Eigenvalues ---    0.16000   0.16000   0.16000   0.16000   0.16000
     Eigenvalues ---    0.22000   0.22000   0.22000   0.22000   0.22000
     Eigenvalues ---    0.22000   0.34822   0.34880   0.34880   0.35079
     Eigenvalues ---    0.35079   0.35079   0.35079   0.35191   0.35191
     Eigenvalues ---    0.35272   0.35272   0.35371   0.35371   0.57306
     Eigenvalues ---    0.57306   0.58341   0.58341
 RFO step:  Lambda=-1.08251808D-02 EMin= 1.05949123D-02
 Linear search not attempted -- first point.
 Iteration  1 RMS(Cart)=  0.04989553 RMS(Int)=  0.00044674
 Iteration  2 RMS(Cart)=  0.00105990 RMS(Int)=  0.00000059
 Iteration  3 RMS(Cart)=  0.00000009 RMS(Int)=  0.00000058
 Variable       Old X    -DE/DX   Delta X   Delta X   Delta X     New X
                                 (Linear)    (Quad)   (Total)
    R1        2.52278   0.01154   0.00000   0.01942   0.01942   2.54220
    R2        2.05236  -0.00019   0.00000  -0.00051  -0.00051   2.05185
    R3        2.05076   0.00017   0.00000   0.00047   0.00047   2.05123
    R4        2.79170  -0.01381   0.00000  -0.03839  -0.03839   2.75331
    R5        2.05365   0.00061   0.00000   0.00169   0.00169   2.05534
    R6        2.53138   0.01766   0.00000   0.03025   0.03025   2.56163
    R7        2.05547  -0.00024   0.00000  -0.00066  -0.00066   2.05481
    R8        2.79265  -0.01654   0.00000  -0.04608  -0.04608   2.74658
    R9        2.05546  -0.00016   0.00000  -0.00044  -0.00044   2.05502
   R10        2.53138   0.01766   0.00000   0.03025   0.03025   2.56163
   R11        2.05546  -0.00016   0.00000  -0.00044  -0.00044   2.05502
   R12        2.79169  -0.01380   0.00000  -0.03839  -0.03839   2.75331
   R13        2.05547  -0.00024   0.00000  -0.00066  -0.00066   2.05481
   R14        2.52278   0.01154   0.00000   0.01942   0.01942   2.54220
   R15        2.05365   0.00061   0.00000   0.00169   0.00169   2.05534
   R16        2.05236  -0.00019   0.00000  -0.00052  -0.00052   2.05185
   R17        2.05076   0.00017   0.00000   0.00047   0.00047   2.05123
    A1        2.11474   0.00028   0.00000   0.00164   0.00164   2.11638
    A2        2.09385   0.00444   0.00000   0.02599   0.02599   2.11985
    A3        2.07460  -0.00472   0.00000  -0.02764  -0.02764   2.04696
    A4        2.11398   0.01173   0.00000   0.05083   0.05083   2.16481
    A5        2.07623  -0.00039   0.00000   0.00665   0.00665   2.08289
    A6        2.09297  -0.01135   0.00000  -0.05749  -0.05749   2.03549
    A7        2.11048   0.01216   0.00000   0.05269   0.05269   2.16317
    A8        2.08144  -0.00963   0.00000  -0.04709  -0.04709   2.03435
    A9        2.09127  -0.00254   0.00000  -0.00560  -0.00560   2.08567
   A10        2.11089   0.01249   0.00000   0.05409   0.05409   2.16498
   A11        2.09043  -0.00294   0.00000  -0.00771  -0.00771   2.08272
   A12        2.08187  -0.00955   0.00000  -0.04639  -0.04639   2.03548
   A13        2.11088   0.01249   0.00000   0.05410   0.05410   2.16498
   A14        2.08187  -0.00955   0.00000  -0.04639  -0.04639   2.03548
   A15        2.09043  -0.00294   0.00000  -0.00771  -0.00771   2.08272
   A16        2.11048   0.01216   0.00000   0.05269   0.05269   2.16317
   A17        2.09127  -0.00254   0.00000  -0.00560  -0.00560   2.08567
   A18        2.08143  -0.00962   0.00000  -0.04709  -0.04709   2.03435
   A19        2.11398   0.01173   0.00000   0.05083   0.05083   2.16481
   A20        2.09298  -0.01135   0.00000  -0.05749  -0.05749   2.03549
   A21        2.07623  -0.00039   0.00000   0.00665   0.00665   2.08289
   A22        2.11474   0.00028   0.00000   0.00164   0.00164   2.11638
   A23        2.09385   0.00444   0.00000   0.02599   0.02599   2.11985
   A24        2.07459  -0.00472   0.00000  -0.02764  -0.02764   2.04696
    D1       -0.00001  -0.00000   0.00000  -0.00002  -0.00002  -0.00003
    D2       -3.14152  -0.00000   0.00000  -0.00008  -0.00008   3.14158
    D3        3.14153   0.00000   0.00000   0.00004   0.00004   3.14157
    D4        0.00002  -0.00000   0.00000  -0.00002  -0.00002  -0.00001
    D5       -3.14116  -0.00001   0.00000  -0.00020  -0.00020  -3.14136
    D6        0.00028  -0.00000   0.00000  -0.00008  -0.00008   0.00020
    D7        0.00035  -0.00000   0.00000  -0.00014  -0.00014   0.00021
    D8       -3.14140   0.00000   0.00000  -0.00001  -0.00002  -3.14141
    D9        3.14139   0.00000   0.00000   0.00011   0.00011   3.14150
   D10       -0.00002  -0.00000   0.00000  -0.00003  -0.00003  -0.00005
   D11       -0.00004  -0.00000   0.00000  -0.00001  -0.00001  -0.00006
   D12       -3.14145  -0.00000   0.00000  -0.00015  -0.00015   3.14158
   D13       -3.14093  -0.00001   0.00000  -0.00032  -0.00032  -3.14125
   D14        0.00048  -0.00000   0.00000  -0.00018  -0.00018   0.00031
   D15        0.00048  -0.00000   0.00000  -0.00018  -0.00018   0.00031
   D16       -3.14129   0.00000   0.00000  -0.00003  -0.00004  -3.14133
   D17        3.14139   0.00000   0.00000   0.00011   0.00011   3.14150
   D18       -0.00004  -0.00000   0.00000  -0.00001  -0.00001  -0.00006
   D19       -0.00002  -0.00000   0.00000  -0.00003  -0.00003  -0.00005
   D20       -3.14145  -0.00000   0.00000  -0.00015  -0.00015   3.14158
   D21       -3.14116  -0.00001   0.00000  -0.00020  -0.00020  -3.14136
   D22        0.00035  -0.00000   0.00000  -0.00014  -0.00014   0.00021
   D23        0.00028  -0.00000   0.00000  -0.00008  -0.00008   0.00020
   D24       -3.14140   0.00000   0.00000  -0.00001  -0.00002  -3.14141
   D25       -0.00001  -0.00000   0.00000  -0.00002  -0.00002  -0.00003
   D26        3.14153   0.00000   0.00000   0.00004   0.00004   3.14157
   D27       -3.14152  -0.00000   0.00000  -0.00008  -0.00008   3.14158
   D28        0.00002  -0.00000   0.00000  -0.00002  -0.00002  -0.00001
         Item               Value     Threshold  Converged?
 Maximum Force            0.017661     0.000450     NO 
 RMS     Force            0.006777     0.000300     NO 
 Maximum Displacement     0.134287     0.001800     NO 
 RMS     Displacement     0.049126     0.001200     NO 
 Predicted change in Energy=-5.643918D-03
 GradGradGradGradGradGradGradGradGradGradGradGradGradGradGradGradGradGrad

                          Input orientation:                          
 ---------------------------------------------------------------------
 Center     Atomic      Atomic             Coordinates (Angstroms)
 Number     Number       Type             X           Y           Z
 ---------------------------------------------------------------------
      1          6           0       18.872076   -7.746464   -0.281654
      2          6           0       19.511630   -8.542801    0.593889
      3          6           0       20.910050   -8.932748    0.470688
      4          6           0       21.552553   -9.735554    1.353990
      5          6           0       22.947324  -10.126044    1.233255
      6          6           0       23.589717  -10.929162    2.116353
      7          6           0       24.988076  -11.319291    1.993044
      8          6           0       25.627373  -12.116359    2.868111
      9          1           0       19.381199   -7.341600   -1.151032
     10          1           0       18.971303   -8.931142    1.454236
     11          1           0       21.449263   -8.543775   -0.389717
     12          1           0       21.010646  -10.123022    2.213522
     13          1           0       23.489303   -9.738370    0.373862
     14          1           0       23.050436  -11.318318    2.976633
     15          1           0       25.528568  -10.930490    1.133009
     16          1           0       25.118083  -12.521683    3.737176
     17          1           0       26.671747  -12.380673    2.735239
     18          1           0       17.827654   -7.482298   -0.148866
 ---------------------------------------------------------------------
                    Distance matrix (angstroms):
                    1          2          3          4          5
     1  C    0.000000
     2  C    1.345272   0.000000
     3  C    2.475203   1.456988   0.000000
     4  C    3.717091   2.483098   1.355554   0.000000
     5  C    4.956309   3.836592   2.481119   1.453426   0.000000
     6  C    6.175446   4.964212   3.724848   2.481116   1.355554
     7  C    7.439409   6.297459   4.964217   3.836592   2.483100
     8  C    8.640083   7.439403   6.175447   4.956305   3.717091
     9  H    1.085790   2.122415   2.738451   4.089123   5.114216
    10  H    2.103954   1.087639   2.173961   2.705545   4.157567
    11  H    2.699866   2.172994   1.087358   2.114596   2.716947
    12  H    4.055541   2.714288   2.112898   1.087469   2.170634
    13  H    5.071112   4.159289   2.703877   2.170636   1.087469
    14  H    6.390091   5.089608   4.068409   2.716941   2.114595
    15  H    7.513200   6.495787   5.075466   4.157572   2.705550
    16  H    8.829854   7.559370   6.423235   5.114206   4.089120
    17  H    9.560983   8.401304   7.086150   5.925424   4.605500
    18  H    1.085464   2.124177   3.462487   4.605497   5.925426
                    6          7          8          9         10
     6  C    0.000000
     7  C    1.456988   0.000000
     8  C    2.475201   1.345273   0.000000
     9  H    6.423241   7.559386   8.829865   0.000000
    10  H    5.075453   6.495777   7.513182   3.079299   0.000000
    11  H    4.068414   5.089621   6.390101   2.510322   3.112956
    12  H    2.703870   4.159281   5.071099   4.659574   2.481131
    13  H    2.112899   2.714292   4.055545   4.994630   4.714992
    14  H    1.087358   2.172992   2.699861   6.805527   4.965443
    15  H    2.173962   1.087639   2.103954   7.475769   6.862820
    16  H    2.738448   2.122415   1.085790   9.145473   7.475741
    17  H    3.462486   2.124177   1.085464   9.677161   8.534463
    18  H    7.086145   8.401306   9.560977   1.854086   2.444794
                   11         12         13         14         15
    11  H    0.000000
    12  H    3.076240   0.000000
    13  H    2.484326   3.110634   0.000000
    14  H    4.646951   2.484314   3.076240   0.000000
    15  H    4.965464   4.714990   2.481140   3.112956   0.000000
    16  H    6.805530   4.994611   4.659575   2.510315   3.079299
    17  H    7.194544   6.116963   4.762962   3.781635   2.444796
    18  H    3.781639   4.762955   6.116975   7.194529   8.534477
                   16         17         18
    16  H    0.000000
    17  H    1.854086   0.000000
    18  H    9.677142  10.513330   0.000000
 Stoichiometry    C8H10
 Framework group  C1[X(C8H10)]
 Deg. of freedom    48
 Full point group                 C1      NOp   1
 Largest Abelian subgroup         C1      NOp   1
 Largest concise Abelian subgroup C1      NOp   1
                         Standard orientation:                         
 ---------------------------------------------------------------------
 Center     Atomic      Atomic             Coordinates (Angstroms)
 Number     Number       Type             X           Y           Z
 ---------------------------------------------------------------------
      1          6           0        4.315317    0.202018    0.000426
      2          6           0        3.120979   -0.417107   -0.000028
      3          6           0        1.841328    0.279533   -0.000138
      4          6           0        0.638891   -0.346303   -0.000332
      5          6           0       -0.638892    0.346315   -0.000332
      6          6           0       -1.841327   -0.279526   -0.000138
      7          6           0       -3.120982    0.417105   -0.000028
      8          6           0       -4.315314   -0.202032    0.000426
      9          1           0        4.388376    1.285347    0.000717
     10          1           0        3.084177   -1.504124   -0.000318
     11          1           0        1.879358    1.366226   -0.000022
     12          1           0        0.604060   -1.433214   -0.000461
     13          1           0       -0.604064    1.433227   -0.000461
     14          1           0       -1.879350   -1.366219   -0.000022
     15          1           0       -3.084191    1.504122   -0.000318
     16          1           0       -4.388362   -1.285361    0.000717
     17          1           0       -5.244373    0.359290    0.000515
     18          1           0        5.244369   -0.359314    0.000515
 ---------------------------------------------------------------------
 Rotational constants (GHZ):          19.4684948           0.5658373           0.5498562
 Standard basis: 6-31G(d,p) (6D, 7F)
 There are   170 symmetry adapted cartesian basis functions of A   symmetry.
 There are   170 symmetry adapted basis functions of A   symmetry.
   170 basis functions,   294 primitive gaussians,   170 cartesian basis functions
    29 alpha electrons       29 beta electrons
       nuclear repulsion energy       296.6908583362 Hartrees.
 NAtoms=   18 NActive=   18 NUniq=   18 SFac= 1.00D+00 NAtFMM=   60 NAOKFM=F Big=F
 Integral buffers will be    131072 words long.
 Raffenetti 2 integral format.
 Two-electron integral symmetry is turned on.
 One-electron integrals computed using PRISM.
 NBasis=   170 RedAO= T EigKep=  1.81D-03  NBF=   170
 NBsUse=   170 1.00D-06 EigRej= -1.00D+00 NBFU=   170
 Initial guess from the checkpoint file:  "./chk/4.chk"
 B after Tr=     0.000000    0.000000   -0.000000
         Rot=    0.999999    0.000000    0.000000    0.001262 Ang=   0.14 deg.
 ExpMin= 1.61D-01 ExpMax= 3.05D+03 ExpMxC= 4.57D+02 IAcc=3 IRadAn=         5 AccDes= 0.00D+00
 Harris functional with IExCor=  402 and IRadAn=       5 diagonalized for initial guess.
 HarFok:  IExCor=  402 AccDes= 0.00D+00 IRadAn=         5 IDoV= 1 UseB2=F ITyADJ=14
 ICtDFT=  3500011 ScaDFX=  1.000000  1.000000  1.000000  1.000000
 FoFCou: FMM=F IPFlag=           0 FMFlag=      100000 FMFlg1=           0
         NFxFlg=           0 DoJE=T BraDBF=F KetDBF=T FulRan=T
         wScrn=  0.000000 ICntrl=       500 IOpCl=  0 I1Cent=   200000004 NGrid=           0
         NMat0=    1 NMatS0=      1 NMatT0=    0 NMatD0=    1 NMtDS0=    0 NMtDT0=    0
 Petite list used in FoFCou.
 Requested convergence on RMS density matrix=1.00D-08 within 128 cycles.
 Requested convergence on MAX density matrix=1.00D-06.
 Requested convergence on             energy=1.00D-06.
 No special actions if energy rises.
 Integral accuracy reduced to 1.0D-05 until final iterations.
 Initial convergence to 1.0D-05 achieved.  Increase integral accuracy.
 SCF Done:  E(RB3LYP) =  -310.821270853     A.U. after   11 cycles
            NFock= 11  Conv=0.50D-08     -V/T= 2.0103
 Calling FoFJK, ICntrl=      2127 FMM=F ISym2X=0 I1Cent= 0 IOpClX= 0 NMat=1 NMatS=1 NMatT=0.
 ***** Axes restored to original set *****
 -------------------------------------------------------------------
 Center     Atomic                   Forces (Hartrees/Bohr)
 Number     Number              X              Y              Z
 -------------------------------------------------------------------
      1        6           0.000253350   -0.002105173    0.003049445
      2        6           0.005268038    0.000911811   -0.004052903
      3        6          -0.007110884   -0.000368210    0.004174648
      4        6           0.008876548   -0.000363866   -0.003961800
      5        6          -0.008875768    0.000366088    0.003963408
      6        6           0.007112220    0.000372275   -0.004171848
      7        6          -0.005268256   -0.000912612    0.004052422
      8        6          -0.000251415    0.002110617   -0.003045809
      9        1          -0.000228216    0.000509435   -0.000652706
     10        1          -0.000446793   -0.000578527    0.001096076
     11        1           0.001331648    0.000290229   -0.001118046
     12        1          -0.001359769   -0.000269974    0.001092777
     13        1           0.001358198    0.000265521   -0.001095821
     14        1          -0.001332743   -0.000293422    0.001115871
     15        1           0.000445982    0.000576232   -0.001097658
     16        1           0.000227877   -0.000510434    0.000652044
     17        1          -0.000541456   -0.000226529    0.000616528
     18        1           0.000541440    0.000226538   -0.000616630
 -------------------------------------------------------------------
 Cartesian Forces:  Max     0.008876548 RMS     0.002924830

 GradGradGradGradGradGradGradGradGradGradGradGradGradGradGradGradGradGrad
 Berny optimization.
 Using GEDIIS/GDIIS optimizer.
 FormGI is forming the generalized inverse of G from B-inverse, IUseBI=4.
 Internal  Forces:  Max     0.007389828 RMS     0.001526488
 Search for a local minimum.
 Step number   2 out of a maximum of   79
 All quantities printed in internal units (Hartrees-Bohrs-Radians)
 Mixed Optimization -- RFO/linear search
 Update second derivatives using D2CorX and points    1    2
 DE= -5.90D-03 DEPred=-5.64D-03 R= 1.05D+00
 TightC=F SS=  1.41D+00  RLast= 2.07D-01 DXNew= 5.0454D-01 6.2020D-01
 Trust test= 1.05D+00 RLast= 2.07D-01 DXMaxT set to 5.05D-01
 ITU=  1  0
 Use linear search instead of GDIIS.
     Eigenvalues ---    0.01059   0.01066   0.01066   0.01997   0.01997
     Eigenvalues ---    0.02002   0.02002   0.02031   0.02031   0.02888
     Eigenvalues ---    0.02888   0.02949   0.02949   0.02949   0.02949
     Eigenvalues ---    0.15650   0.16000   0.16000   0.16000   0.16000
     Eigenvalues ---    0.16000   0.16000   0.16000   0.16000   0.16569
     Eigenvalues ---    0.20897   0.22000   0.22000   0.22000   0.22000
     Eigenvalues ---    0.22038   0.32051   0.34850   0.34880   0.35079
     Eigenvalues ---    0.35079   0.35079   0.35163   0.35191   0.35250
     Eigenvalues ---    0.35272   0.35333   0.35371   0.35441   0.57306
     Eigenvalues ---    0.57793   0.58341   0.61438
 RFO step:  Lambda=-4.61253791D-04 EMin= 1.05949110D-02
 Quartic linear search produced a step of  0.10195.
 Iteration  1 RMS(Cart)=  0.00903112 RMS(Int)=  0.00001857
 Iteration  2 RMS(Cart)=  0.00004098 RMS(Int)=  0.00000004
 Iteration  3 RMS(Cart)=  0.00000000 RMS(Int)=  0.00000004
 Variable       Old X    -DE/DX   Delta X   Delta X   Delta X     New X
                                 (Linear)    (Quad)   (Total)
    R1        2.54220  -0.00224   0.00198  -0.00540  -0.00342   2.53878
    R2        2.05185   0.00061  -0.00005   0.00192   0.00187   2.05371
    R3        2.05123  -0.00054   0.00005  -0.00171  -0.00167   2.04957
    R4        2.75331  -0.00555  -0.00391  -0.01514  -0.01905   2.73426
    R5        2.05534   0.00130   0.00017   0.00395   0.00412   2.05946
    R6        2.56163  -0.00170   0.00308  -0.00510  -0.00201   2.55961
    R7        2.05481   0.00165  -0.00007   0.00521   0.00515   2.05996
    R8        2.74658  -0.00739  -0.00470  -0.02051  -0.02521   2.72137
    R9        2.05502   0.00164  -0.00005   0.00516   0.00512   2.06014
   R10        2.56163  -0.00170   0.00308  -0.00510  -0.00201   2.55961
   R11        2.05502   0.00164  -0.00005   0.00516   0.00512   2.06014
   R12        2.75331  -0.00555  -0.00391  -0.01514  -0.01905   2.73426
   R13        2.05481   0.00165  -0.00007   0.00521   0.00515   2.05996
   R14        2.54220  -0.00224   0.00198  -0.00540  -0.00342   2.53878
   R15        2.05534   0.00130   0.00017   0.00395   0.00412   2.05946
   R16        2.05185   0.00061  -0.00005   0.00192   0.00187   2.05371
   R17        2.05123  -0.00054   0.00005  -0.00171  -0.00167   2.04957
    A1        2.11638   0.00038   0.00017   0.00253   0.00270   2.11908
    A2        2.11985   0.00048   0.00265   0.00163   0.00428   2.12412
    A3        2.04696  -0.00087  -0.00282  -0.00416  -0.00698   2.03998
    A4        2.16481   0.00111   0.00518   0.00232   0.00750   2.17231
    A5        2.08289  -0.00031   0.00068  -0.00155  -0.00087   2.08202
    A6        2.03549  -0.00080  -0.00586  -0.00077  -0.00663   2.02885
    A7        2.16317   0.00070   0.00537   0.00017   0.00555   2.16871
    A8        2.03435   0.00029  -0.00480   0.00566   0.00085   2.03520
    A9        2.08567  -0.00099  -0.00057  -0.00583  -0.00640   2.07927
   A10        2.16498   0.00086   0.00552   0.00088   0.00640   2.17138
   A11        2.08272  -0.00111  -0.00079  -0.00634  -0.00713   2.07559
   A12        2.03548   0.00025  -0.00473   0.00546   0.00073   2.03621
   A13        2.16498   0.00086   0.00552   0.00088   0.00640   2.17138
   A14        2.03548   0.00025  -0.00473   0.00546   0.00073   2.03621
   A15        2.08272  -0.00111  -0.00079  -0.00634  -0.00713   2.07559
   A16        2.16317   0.00070   0.00537   0.00017   0.00554   2.16871
   A17        2.08567  -0.00099  -0.00057  -0.00583  -0.00640   2.07927
   A18        2.03435   0.00029  -0.00480   0.00566   0.00086   2.03520
   A19        2.16481   0.00111   0.00518   0.00232   0.00750   2.17231
   A20        2.03549  -0.00080  -0.00586  -0.00077  -0.00663   2.02885
   A21        2.08289  -0.00031   0.00068  -0.00155  -0.00087   2.08202
   A22        2.11638   0.00038   0.00017   0.00253   0.00270   2.11908
   A23        2.11985   0.00048   0.00265   0.00163   0.00428   2.12413
   A24        2.04696  -0.00087  -0.00282  -0.00416  -0.00697   2.03998
    D1       -0.00003   0.00000  -0.00000   0.00002   0.00002  -0.00001
    D2        3.14158   0.00000  -0.00001   0.00001   0.00000   3.14159
    D3        3.14157   0.00000   0.00000   0.00001   0.00001   3.14158
    D4       -0.00001   0.00000  -0.00000   0.00000  -0.00000  -0.00001
    D5       -3.14136  -0.00000  -0.00002  -0.00017  -0.00019  -3.14154
    D6        0.00020  -0.00000  -0.00001  -0.00015  -0.00016   0.00004
    D7        0.00021  -0.00000  -0.00001  -0.00016  -0.00017   0.00004
    D8       -3.14141  -0.00000  -0.00000  -0.00014  -0.00014  -3.14156
    D9        3.14150   0.00000   0.00001   0.00005   0.00006   3.14156
   D10       -0.00005   0.00000  -0.00000   0.00002   0.00002  -0.00003
   D11       -0.00006   0.00000  -0.00000   0.00003   0.00003  -0.00003
   D12        3.14158  -0.00000  -0.00002   0.00000  -0.00001   3.14157
   D13       -3.14125  -0.00000  -0.00003  -0.00027  -0.00030  -3.14155
   D14        0.00031  -0.00000  -0.00002  -0.00025  -0.00027   0.00004
   D15        0.00031  -0.00000  -0.00002  -0.00025  -0.00027   0.00004
   D16       -3.14133  -0.00000  -0.00000  -0.00023  -0.00023  -3.14156
   D17        3.14150   0.00000   0.00001   0.00005   0.00006   3.14156
   D18       -0.00006   0.00000  -0.00000   0.00003   0.00003  -0.00003
   D19       -0.00005   0.00000  -0.00000   0.00002   0.00002  -0.00003
   D20        3.14158  -0.00000  -0.00002   0.00000  -0.00001   3.14157
   D21       -3.14136  -0.00000  -0.00002  -0.00017  -0.00019  -3.14154
   D22        0.00021  -0.00000  -0.00001  -0.00016  -0.00017   0.00004
   D23        0.00020  -0.00000  -0.00001  -0.00015  -0.00016   0.00004
   D24       -3.14141  -0.00000  -0.00000  -0.00014  -0.00014  -3.14156
   D25       -0.00003   0.00000  -0.00000   0.00002   0.00002  -0.00001
   D26        3.14157   0.00000   0.00000   0.00001   0.00001   3.14158
   D27        3.14158   0.00000  -0.00001   0.00001   0.00000   3.14159
   D28       -0.00001   0.00000  -0.00000   0.00000  -0.00000  -0.00001
         Item               Value     Threshold  Converged?
 Maximum Force            0.007390     0.000450     NO 
 RMS     Force            0.001526     0.000300     NO 
 Maximum Displacement     0.030252     0.001800     NO 
 RMS     Displacement     0.009058     0.001200     NO 
 Predicted change in Energy=-2.811459D-04
 GradGradGradGradGradGradGradGradGradGradGradGradGradGradGradGradGradGrad

                          Input orientation:                          
 ---------------------------------------------------------------------
 Center     Atomic      Atomic             Coordinates (Angstroms)
 Number     Number       Type             X           Y           Z
 ---------------------------------------------------------------------
      1          6           0       18.879099   -7.751107   -0.277641
      2          6           0       19.524185   -8.546064    0.592302
      3          6           0       20.912721   -8.934694    0.472012
      4          6           0       21.559013   -9.736605    1.351720
      5          6           0       22.940694  -10.125482    1.235210
      6          6           0       23.586971  -10.927432    2.114894
      7          6           0       24.975485  -11.316130    1.994562
      8          6           0       25.620525  -12.111211    2.864424
      9          1           0       19.380992   -7.341379   -1.150174
     10          1           0       18.987127   -8.937954    1.455839
     11          1           0       21.455630   -8.545989   -0.389636
     12          1           0       21.012764  -10.123402    2.212237
     13          1           0       23.486952   -9.738659    0.374712
     14          1           0       23.044065  -11.316124    2.976549
     15          1           0       25.512560  -10.924198    1.131054
     16          1           0       25.118616  -12.520978    3.736930
     17          1           0       26.664114  -12.374379    2.730312
     18          1           0       17.835488   -7.488009   -0.143570
 ---------------------------------------------------------------------
                    Distance matrix (angstroms):
                    1          2          3          4          5
     1  C    0.000000
     2  C    1.343463   0.000000
     3  C    2.469509   1.446906   0.000000
     4  C    3.712001   2.476818   1.354489   0.000000
     5  C    4.941956   3.818433   2.472473   1.440085   0.000000
     6  C    6.162574   4.949286   3.717752   2.472472   1.354489
     7  C    7.418774   6.273458   4.949288   3.818433   2.476819
     8  C    8.621479   7.418773   6.162574   4.941955   3.712002
     9  H    1.086779   2.123203   2.741593   4.091498   5.110065
    10  H    2.103623   1.089819   2.162369   2.695047   4.133956
    11  H    2.698683   2.166722   1.090081   2.112007   2.709306
    12  H    4.047196   2.707038   2.109839   1.090178   2.161365
    13  H    5.060458   4.144051   2.698609   2.161366   1.090178
    14  H    6.375424   5.074192   4.060362   2.709304   2.112007
    15  H    7.487037   6.465788   5.054797   4.133957   2.695049
    16  H    8.820432   7.548926   6.419554   5.110062   4.091497
    17  H    9.540906   8.378883   7.071766   5.909351   4.599644
    18  H    1.084583   2.124308   3.455605   4.599643   5.909351
                    6          7          8          9         10
     6  C    0.000000
     7  C    1.446906   0.000000
     8  C    2.469509   1.343463   0.000000
     9  H    6.419556   7.548931   8.820435   0.000000
    10  H    5.054794   6.465785   7.487032   3.081475   0.000000
    11  H    4.060364   5.074195   6.375427   2.516669   3.106915
    12  H    2.698607   4.144049   5.060454   4.659199   2.465893
    13  H    2.109839   2.707039   4.047198   4.993109   4.696636
    14  H    1.090081   2.166721   2.698682   6.800481   4.942367
    15  H    2.162369   1.089819   2.103623   7.459002   6.828757
    16  H    2.741592   2.123203   1.086779   9.145073   7.458994
    17  H    3.455605   2.124309   1.084583   9.666081   8.507022
    18  H    7.071764   8.378883   9.540904   1.850226   2.446779
                   11         12         13         14         15
    11  H    0.000000
    12  H    3.074752   0.000000
    13  H    2.476481   3.105823   0.000000
    14  H    4.639825   2.476478   3.074752   0.000000
    15  H    4.942373   4.696636   2.465896   3.106915   0.000000
    16  H    6.800482   4.993103   4.659199   2.516667   3.081475
    17  H    7.177670   6.105166   4.752918   3.779589   2.446779
    18  H    3.779590   4.752916   6.105170   7.177666   8.507026
                   16         17         18
    16  H    0.000000
    17  H    1.850226   0.000000
    18  H    9.666076  10.491923   0.000000
 Stoichiometry    C8H10
 Framework group  C1[X(C8H10)]
 Deg. of freedom    48
 Full point group                 C1      NOp   1
 Largest Abelian subgroup         C1      NOp   1
 Largest concise Abelian subgroup C1      NOp   1
                         Standard orientation:                         
 ---------------------------------------------------------------------
 Center     Atomic      Atomic             Coordinates (Angstroms)
 Number     Number       Type             X           Y           Z
 ---------------------------------------------------------------------
      1          6           0        4.306188    0.198059    0.000081
      2          6           0        3.109486   -0.412511    0.000004
      3          6           0        1.837973    0.277990   -0.000037
      4          6           0        0.633673   -0.341933   -0.000062
      5          6           0       -0.633673    0.341936   -0.000062
      6          6           0       -1.837972   -0.277988   -0.000037
      7          6           0       -3.109487    0.412511    0.000004
      8          6           0       -4.306187   -0.198063    0.000081
      9          1           0        4.389243    1.281659    0.000106
     10          1           0        3.066515   -1.501483   -0.000023
     11          1           0        1.874037    1.367474   -0.000045
     12          1           0        0.601612   -1.431639   -0.000078
     13          1           0       -0.601613    1.431643   -0.000078
     14          1           0       -1.874035   -1.367472   -0.000045
     15          1           0       -3.066519    1.501482   -0.000023
     16          1           0       -4.389239   -1.281663    0.000106
     17          1           0       -5.233260    0.364837    0.000123
     18          1           0        5.233259   -0.364844    0.000123
 ---------------------------------------------------------------------
 Rotational constants (GHZ):          19.6590842           0.5687331           0.5527424
 Standard basis: 6-31G(d,p) (6D, 7F)
 There are   170 symmetry adapted cartesian basis functions of A   symmetry.
 There are   170 symmetry adapted basis functions of A   symmetry.
   170 basis functions,   294 primitive gaussians,   170 cartesian basis functions
    29 alpha electrons       29 beta electrons
       nuclear repulsion energy       297.4379543371 Hartrees.
 NAtoms=   18 NActive=   18 NUniq=   18 SFac= 1.00D+00 NAtFMM=   60 NAOKFM=F Big=F
 Integral buffers will be    131072 words long.
 Raffenetti 2 integral format.
 Two-electron integral symmetry is turned on.
 One-electron integrals computed using PRISM.
 NBasis=   170 RedAO= T EigKep=  1.75D-03  NBF=   170
 NBsUse=   170 1.00D-06 EigRej= -1.00D+00 NBFU=   170
 Initial guess from the checkpoint file:  "./chk/4.chk"
 B after Tr=    -0.000000    0.000000   -0.000000
         Rot=    1.000000    0.000000    0.000000    0.000193 Ang=   0.02 deg.
 ExpMin= 1.61D-01 ExpMax= 3.05D+03 ExpMxC= 4.57D+02 IAcc=3 IRadAn=         5 AccDes= 0.00D+00
 Harris functional with IExCor=  402 and IRadAn=       5 diagonalized for initial guess.
 HarFok:  IExCor=  402 AccDes= 0.00D+00 IRadAn=         5 IDoV= 1 UseB2=F ITyADJ=14
 ICtDFT=  3500011 ScaDFX=  1.000000  1.000000  1.000000  1.000000
 FoFCou: FMM=F IPFlag=           0 FMFlag=      100000 FMFlg1=           0
         NFxFlg=           0 DoJE=T BraDBF=F KetDBF=T FulRan=T
         wScrn=  0.000000 ICntrl=       500 IOpCl=  0 I1Cent=   200000004 NGrid=           0
         NMat0=    1 NMatS0=      1 NMatT0=    0 NMatD0=    1 NMtDS0=    0 NMtDT0=    0
 Petite list used in FoFCou.
 Requested convergence on RMS density matrix=1.00D-08 within 128 cycles.
 Requested convergence on MAX density matrix=1.00D-06.
 Requested convergence on             energy=1.00D-06.
 No special actions if energy rises.
 Integral accuracy reduced to 1.0D-05 until final iterations.
 Initial convergence to 1.0D-05 achieved.  Increase integral accuracy.
 SCF Done:  E(RB3LYP) =  -310.821545004     A.U. after   11 cycles
            NFock= 11  Conv=0.30D-08     -V/T= 2.0101
 Calling FoFJK, ICntrl=      2127 FMM=F ISym2X=0 I1Cent= 0 IOpClX= 0 NMat=1 NMatS=1 NMatT=0.
 ***** Axes restored to original set *****
 -------------------------------------------------------------------
 Center     Atomic                   Forces (Hartrees/Bohr)
 Number     Number              X              Y              Z
 -------------------------------------------------------------------
      1        6          -0.000103916   -0.000135883    0.000258319
      2        6          -0.000039811   -0.000063898    0.000117032
      3        6          -0.000598791    0.000494467   -0.000439063
      4        6           0.000539546   -0.000422790    0.000364733
      5        6          -0.000538954    0.000424481   -0.000363545
      6        6           0.000599231   -0.000493167    0.000439935
      7        6           0.000039969    0.000064317   -0.000116705
      8        6           0.000104156    0.000136530   -0.000257901
      9        1          -0.000062346    0.000071959   -0.000077166
     10        1          -0.000350861    0.000119001   -0.000001798
     11        1           0.000463171   -0.000175722    0.000027272
     12        1          -0.000488036    0.000168267   -0.000007403
     13        1           0.000487452   -0.000169938    0.000006243
     14        1          -0.000463742    0.000174008   -0.000028433
     15        1           0.000350580   -0.000119730    0.000001291
     16        1           0.000062219   -0.000072342    0.000076924
     17        1           0.000064263   -0.000068423    0.000070918
     18        1          -0.000064131    0.000068862   -0.000070652
 -------------------------------------------------------------------
 Cartesian Forces:  Max     0.000599231 RMS     0.000284985

 GradGradGradGradGradGradGradGradGradGradGradGradGradGradGradGradGradGrad
 Berny optimization.
 Using GEDIIS/GDIIS optimizer.
 FormGI is forming the generalized inverse of G from B-inverse, IUseBI=4.
 Internal  Forces:  Max     0.000723740 RMS     0.000276007
 Search for a local minimum.
 Step number   3 out of a maximum of   79
 All quantities printed in internal units (Hartrees-Bohrs-Radians)
 Mixed Optimization -- En-DIIS/RFO-DIIS
 Update second derivatives using D2CorX and points    1    2    3
 DE= -2.74D-04 DEPred=-2.81D-04 R= 9.75D-01
 TightC=F SS=  1.41D+00  RLast= 4.72D-02 DXNew= 8.4853D-01 1.4152D-01
 Trust test= 9.75D-01 RLast= 4.72D-02 DXMaxT set to 5.05D-01
 ITU=  1  1  0
 Use linear search instead of GDIIS.
     Eigenvalues ---    0.01059   0.01066   0.01066   0.01993   0.01993
     Eigenvalues ---    0.01999   0.01999   0.02034   0.02034   0.02888
     Eigenvalues ---    0.02888   0.02949   0.02949   0.02949   0.02949
     Eigenvalues ---    0.14339   0.16000   0.16000   0.16000   0.16000
     Eigenvalues ---    0.16000   0.16000   0.16000   0.16015   0.16597
     Eigenvalues ---    0.21132   0.22000   0.22000   0.22000   0.22005
     Eigenvalues ---    0.22208   0.34458   0.34850   0.34880   0.35079
     Eigenvalues ---    0.35079   0.35081   0.35161   0.35191   0.35266
     Eigenvalues ---    0.35272   0.35371   0.35387   0.35871   0.57306
     Eigenvalues ---    0.57846   0.58341   0.62289
 RFO step:  Lambda=-2.08480609D-05 EMin= 1.05948996D-02
 Quartic linear search produced a step of -0.03182.
 Iteration  1 RMS(Cart)=  0.00286474 RMS(Int)=  0.00000282
 Iteration  2 RMS(Cart)=  0.00000296 RMS(Int)=  0.00000000
 Iteration  3 RMS(Cart)=  0.00000000 RMS(Int)=  0.00000000
 Variable       Old X    -DE/DX   Delta X   Delta X   Delta X     New X
                                 (Linear)    (Quad)   (Total)
    R1        2.53878   0.00004   0.00011  -0.00010   0.00001   2.53879
    R2        2.05371   0.00006  -0.00006   0.00027   0.00021   2.05393
    R3        2.04957   0.00007   0.00005   0.00009   0.00015   2.04971
    R4        2.73426   0.00063   0.00061   0.00057   0.00118   2.73543
    R5        2.05946   0.00013  -0.00013   0.00060   0.00046   2.05992
    R6        2.55961   0.00071   0.00006   0.00112   0.00118   2.56079
    R7        2.05996   0.00015  -0.00016   0.00070   0.00054   2.06049
    R8        2.72137   0.00072   0.00080   0.00046   0.00126   2.72263
    R9        2.06014   0.00018  -0.00016   0.00079   0.00063   2.06076
   R10        2.55961   0.00071   0.00006   0.00112   0.00118   2.56079
   R11        2.06014   0.00018  -0.00016   0.00079   0.00063   2.06076
   R12        2.73426   0.00063   0.00061   0.00057   0.00118   2.73543
   R13        2.05996   0.00015  -0.00016   0.00070   0.00054   2.06049
   R14        2.53878   0.00004   0.00011  -0.00010   0.00001   2.53879
   R15        2.05946   0.00013  -0.00013   0.00060   0.00046   2.05992
   R16        2.05371   0.00006  -0.00006   0.00027   0.00021   2.05393
   R17        2.04957   0.00007   0.00005   0.00009   0.00015   2.04971
    A1        2.11908   0.00008  -0.00009   0.00065   0.00057   2.11964
    A2        2.12412   0.00006  -0.00014   0.00064   0.00051   2.12463
    A3        2.03998  -0.00014   0.00022  -0.00129  -0.00107   2.03891
    A4        2.17231   0.00020  -0.00024   0.00142   0.00118   2.17350
    A5        2.08202  -0.00046   0.00003  -0.00264  -0.00261   2.07941
    A6        2.02885   0.00026   0.00021   0.00121   0.00143   2.03028
    A7        2.16871  -0.00001  -0.00018   0.00036   0.00018   2.16889
    A8        2.03520   0.00050  -0.00003   0.00294   0.00291   2.03811
    A9        2.07927  -0.00048   0.00020  -0.00329  -0.00309   2.07618
   A10        2.17138   0.00021  -0.00020   0.00140   0.00119   2.17257
   A11        2.07559  -0.00060   0.00023  -0.00390  -0.00367   2.07192
   A12        2.03621   0.00039  -0.00002   0.00250   0.00248   2.03869
   A13        2.17138   0.00021  -0.00020   0.00140   0.00119   2.17257
   A14        2.03621   0.00039  -0.00002   0.00250   0.00248   2.03869
   A15        2.07559  -0.00060   0.00023  -0.00390  -0.00367   2.07192
   A16        2.16871  -0.00001  -0.00018   0.00036   0.00018   2.16889
   A17        2.07927  -0.00048   0.00020  -0.00329  -0.00309   2.07618
   A18        2.03520   0.00050  -0.00003   0.00294   0.00291   2.03811
   A19        2.17231   0.00020  -0.00024   0.00142   0.00118   2.17350
   A20        2.02885   0.00026   0.00021   0.00121   0.00142   2.03028
   A21        2.08202  -0.00046   0.00003  -0.00264  -0.00261   2.07941
   A22        2.11908   0.00008  -0.00009   0.00065   0.00057   2.11964
   A23        2.12413   0.00006  -0.00014   0.00064   0.00051   2.12463
   A24        2.03998  -0.00014   0.00022  -0.00129  -0.00107   2.03891
    D1       -0.00001   0.00000  -0.00000   0.00001   0.00001  -0.00000
    D2        3.14159   0.00000  -0.00000   0.00000   0.00000   3.14159
    D3        3.14158   0.00000  -0.00000   0.00001   0.00001   3.14159
    D4       -0.00001   0.00000   0.00000   0.00000   0.00000  -0.00000
    D5       -3.14154  -0.00000   0.00001  -0.00005  -0.00004  -3.14159
    D6        0.00004  -0.00000   0.00000  -0.00005  -0.00004   0.00000
    D7        0.00004  -0.00000   0.00001  -0.00004  -0.00003   0.00000
    D8       -3.14156  -0.00000   0.00000  -0.00004  -0.00003  -3.14159
    D9        3.14156   0.00000  -0.00000   0.00003   0.00002   3.14158
   D10       -0.00003   0.00000  -0.00000   0.00002   0.00002  -0.00001
   D11       -0.00003   0.00000  -0.00000   0.00002   0.00002  -0.00001
   D12        3.14157   0.00000   0.00000   0.00002   0.00002   3.14159
   D13       -3.14155  -0.00000   0.00001  -0.00005  -0.00004  -3.14159
   D14        0.00004  -0.00000   0.00001  -0.00005  -0.00004  -0.00000
   D15        0.00004  -0.00000   0.00001  -0.00005  -0.00004  -0.00000
   D16       -3.14156  -0.00000   0.00001  -0.00005  -0.00004   3.14159
   D17        3.14156   0.00000  -0.00000   0.00003   0.00002   3.14158
   D18       -0.00003   0.00000  -0.00000   0.00002   0.00002  -0.00001
   D19       -0.00003   0.00000  -0.00000   0.00002   0.00002  -0.00001
   D20        3.14157   0.00000   0.00000   0.00002   0.00002   3.14159
   D21       -3.14154  -0.00000   0.00001  -0.00005  -0.00004  -3.14159
   D22        0.00004  -0.00000   0.00001  -0.00004  -0.00003   0.00000
   D23        0.00004  -0.00000   0.00000  -0.00005  -0.00004   0.00000
   D24       -3.14156  -0.00000   0.00000  -0.00004  -0.00003  -3.14159
   D25       -0.00001   0.00000  -0.00000   0.00001   0.00001  -0.00000
   D26        3.14158   0.00000  -0.00000   0.00001   0.00001   3.14159
   D27        3.14159   0.00000  -0.00000   0.00000   0.00000   3.14159
   D28       -0.00001   0.00000   0.00000   0.00000   0.00000  -0.00000
         Item               Value     Threshold  Converged?
 Maximum Force            0.000724     0.000450     NO 
 RMS     Force            0.000276     0.000300     YES
 Maximum Displacement     0.007643     0.001800     NO 
 RMS     Displacement     0.002865     0.001200     NO 
 Predicted change in Energy=-1.070275D-05
 GradGradGradGradGradGradGradGradGradGradGradGradGradGradGradGradGradGrad

                          Input orientation:                          
 ---------------------------------------------------------------------
 Center     Atomic      Atomic             Coordinates (Angstroms)
 Number     Number       Type             X           Y           Z
 ---------------------------------------------------------------------
      1          6           0       18.876592   -7.750091   -0.277777
      2          6           0       19.522911   -8.544986    0.591314
      3          6           0       20.912029   -8.933859    0.471040
      4          6           0       21.558738   -9.736148    1.351060
      5          6           0       22.940936  -10.126035    1.235809
      6          6           0       23.587644  -10.928324    2.115829
      7          6           0       24.976756  -11.317218    1.995543
      8          6           0       25.623069  -12.112124    2.864628
      9          1           0       19.377003   -7.339449   -1.150873
     10          1           0       18.984377   -8.936213    1.454543
     11          1           0       21.457754   -8.546611   -0.389844
     12          1           0       21.009129  -10.121210    2.210635
     13          1           0       23.490543   -9.740978    0.376232
     14          1           0       23.041922  -11.315560    2.976721
     15          1           0       25.515287  -10.925999    1.132309
     16          1           0       25.122661  -12.522755    3.737730
     17          1           0       26.666759  -12.374926    2.729967
     18          1           0       17.832895   -7.487310   -0.143129
 ---------------------------------------------------------------------
                    Distance matrix (angstroms):
                    1          2          3          4          5
     1  C    0.000000
     2  C    1.343467   0.000000
     3  C    2.470837   1.447528   0.000000
     4  C    3.713682   2.478038   1.355114   0.000000
     5  C    4.945194   3.820731   2.474392   1.440752   0.000000
     6  C    6.166403   4.952424   3.720502   2.474392   1.355114
     7  C    7.423232   6.277066   4.952425   3.820731   2.478038
     8  C    8.626528   7.423231   6.166403   4.945193   3.713682
     9  H    1.086892   2.123635   2.743912   4.094362   5.114971
    10  H    2.102246   1.090065   2.164053   2.697765   4.137375
    11  H    2.703590   2.169399   1.090366   2.110910   2.708719
    12  H    4.045011   2.704723   2.108416   1.090510   2.163836
    13  H    5.067534   4.149550   2.703547   2.163836   1.090510
    14  H    6.376073   5.074416   4.060466   2.708718   2.110910
    15  H    7.493130   6.470740   5.059237   4.137376   2.697766
    16  H    8.827004   7.555117   6.425018   5.114970   4.094362
    17  H    9.545802   8.383129   7.075353   5.912395   4.601280
    18  H    1.084661   2.124673   3.456989   4.601280   5.912396
                    6          7          8          9         10
     6  C    0.000000
     7  C    1.447528   0.000000
     8  C    2.470837   1.343467   0.000000
     9  H    6.425019   7.555118   8.827005   0.000000
    10  H    5.059236   6.470739   7.493128   3.080909   0.000000
    11  H    4.060466   5.074417   6.376074   2.523080   3.109846
    12  H    2.703546   4.149550   5.067533   4.658515   2.464855
    13  H    2.108416   2.704723   4.045011   5.002060   4.702758
    14  H    1.090366   2.169399   2.703590   6.802803   4.943884
    15  H    2.164053   1.090065   2.102246   7.466913   6.834900
    16  H    2.743911   2.123635   1.086892   9.153015   7.466910
    17  H    3.456989   2.124674   1.084661   9.672512   8.512958
    18  H    7.075352   8.383129   9.545801   1.849779   2.444951
                   11         12         13         14         15
    11  H    0.000000
    12  H    3.072965   0.000000
    13  H    2.479035   3.109185   0.000000
    14  H    4.637933   2.479034   3.072965   0.000000
    15  H    4.943886   4.702758   2.464856   3.109846   0.000000
    16  H    6.802803   5.002058   4.658515   2.523079   3.080909
    17  H    7.177949   6.112097   4.750379   3.784520   2.444951
    18  H    3.784520   4.750378   6.112098   7.177947   8.512959
                   16         17         18
    16  H    0.000000
    17  H    1.849779   0.000000
    18  H    9.672511  10.496696   0.000000
 Stoichiometry    C8H10
 Framework group  C1[X(C8H10)]
 Deg. of freedom    48
 Full point group                 C1      NOp   1
 Largest Abelian subgroup         C1      NOp   1
 Largest concise Abelian subgroup C1      NOp   1
                         Standard orientation:                         
 ---------------------------------------------------------------------
 Center     Atomic      Atomic             Coordinates (Angstroms)
 Number     Number       Type             X           Y           Z
 ---------------------------------------------------------------------
      1          6           0        4.308735    0.197616    0.000011
      2          6           0        3.111408   -0.411739    0.000004
      3          6           0        1.839233    0.278848   -0.000009
      4          6           0        0.634370   -0.341344   -0.000009
      5          6           0       -0.634370    0.341346   -0.000009
      6          6           0       -1.839233   -0.278847   -0.000009
      7          6           0       -3.111408    0.411738    0.000004
      8          6           0       -4.308735   -0.197617    0.000011
      9          1           0        4.393514    1.281196    0.000005
     10          1           0        3.070162   -1.501022    0.000009
     11          1           0        1.871953    1.368723   -0.000016
     12          1           0        0.606287   -1.431493   -0.000006
[...]
 ,0.0800144,-0.0147345,-0.0860623,0.0656742,0.0118035,0.0539863,0.08366
 41,0.045054,0.0294121,0.0391125,0.0578995,-0.0860645,0.0656705,0.01180
 14,0.0539838,0.0836651,0.0450553,0.0294108,0.0391136,0.0579006\Polar=1
 80.3126505,-85.9553638,98.8367156,53.1016208,-59.9853656,93.4038832\Qu
 adrupole=1.6980229,-2.2153542,0.5173313,-1.27172,-1.2938542,-2.9704442
 \PG=C01 [X(C8H10)]\NImag=0\\0.65857936,-0.17495065,0.36003094,-0.01945
 342,-0.30014324,0.56390426,-0.19580776,0.12103852,-0.10797782,0.605458
 79,0.12905166,-0.21639439,0.18588687,-0.14885145,0.38268153,-0.1200509
 9,0.18996043,-0.27465793,-0.01631493,-0.30172098,0.59509563,-0.0299348
 3,0.02382711,-0.01745027,-0.24923480,0.03568224,0.04160837,0.61042930,
 0.03138985,-0.00924967,0.00755682,0.03682276,-0.07887787,0.00726270,-0
 .14372810,0.36896862,-0.02884504,0.01140145,0.00384246,0.03989041,0.00
 784234,-0.09372821,-0.02803889,-0.28803435,0.57752864,0.00076536,-0.00
 558033,0.00928048,-0.03602965,0.03396341,-0.03061882,-0.16977068,0.101
 09043,-0.09294731,0.61470739,-0.00406338,0.00685551,-0.00452376,0.0242
 1471,-0.01113049,0.01108877,0.10247458,-0.20038218,0.16996224,-0.14355
 442,0.36882299,0.00699487,-0.00375252,0.00457993,-0.01593072,0.0061328
 4,0.00325816,-0.09503269,0.17066599,-0.26182605,-0.03000936,-0.2865073
 3,0.57715840,-0.00307906,0.00376455,-0.00411029,0.01353499,-0.00391523
 ,0.00500380,-0.03783393,0.02635212,-0.01807610,-0.25539621,0.03797113,
 0.04233236,0.61470637,0.00288739,-0.00204081,0.00159635,-0.00406192,0.
 00914702,0.00602241,0.03508327,-0.01185805,0.00712650,0.03797155,-0.07
 764853,0.00789992,-0.14355580,0.36882233,-0.00278864,0.00115039,-0.000
 32271,0.00522445,0.00594794,0.00015601,-0.03123119,0.01156524,0.003161
 63,0.04233259,0.00789981,-0.09301684,-0.03001002,-0.28650637,0.5771600
 5,0.00064932,-0.00165231,0.00210216,-0.00469348,0.00373486,-0.00308064
 ,0.00417526,-0.00687600,0.00972041,-0.03783383,0.03508339,-0.03123104,
 -0.16977034,0.10247481,-0.09503253,0.61042559,-0.00137722,0.00137261,-
 0.00153764,0.00433977,-0.00189522,0.00112511,-0.00687605,0.00812745,-0
 .00435462,0.02635226,-0.01185834,0.01156532,0.10109074,-0.20038205,0.1
 7066570,-0.14373372,0.36896815,0.00168765,-0.00139775,0.00113540,-0.00
 399195,0.00143256,0.00018682,0.00972041,-0.00435455,0.00453645,-0.0180
 7597,0.00712651,0.00316179,-0.09294707,0.16996213,-0.26182649,-0.02804
 148,-0.28803133,0.57753283,-0.00051916,0.00095980,-0.00119142,0.002508
 22,-0.00204874,0.00091255,-0.00469349,0.00433970,-0.00399197,0.0135349
 7,-0.00406176,0.00522451,-0.03602940,0.02421498,-0.01593046,-0.2492329
 9,0.03682520,0.03989184,0.60545365,0.00065410,-0.00058517,0.00052181,-
 0.00204875,-0.00050047,-0.00086912,0.00373490,-0.00189522,0.00143261,-
 0.00391542,0.00914713,0.00594789,0.03396355,-0.01113094,0.00613278,0.0
 3568513,-0.07887894,0.00784145,-0.14885793,0.38268631,-0.00073080,0.00
 036637,-0.00019863,0.00091255,-0.00086909,-0.00092304,-0.00308063,0.00
 112507,0.00018683,0.00500367,0.00602239,0.00015592,-0.03061859,0.01108
 895,0.00325839,0.04161002,0.00726167,-0.09372899,-0.01632003,-0.301719
 25,0.59509599,-0.00016108,-0.00022229,0.00043326,-0.00051916,0.0006540
 9,-0.00073080,0.00064932,-0.00137719,0.00168765,-0.00307904,0.00288737
 ,-0.00278862,0.00076538,-0.00406327,0.00699488,-0.02993444,0.03139025,
 -0.02884454,-0.19580560,0.12905333,-0.12004832,0.65857217,-0.00022229,
 0.00036429,-0.00038711,0.00095981,-0.00058517,0.00036639,-0.00165232,0
 .00137261,-0.00139778,0.00376458,-0.00204089,0.00115043,-0.00558028,0.
 00685558,-0.00375262,0.02382747,-0.00925051,0.01140173,0.12104035,-0.2
 1639902,0.18996127,-0.17495999,0.36003721,0.00043326,-0.00038711,0.000
 39534,-0.00119142,0.00052179,-0.00019863,0.00210216,-0.00153762,0.0011
 3539,-0.00411025,0.00159636,-0.00032266,0.00928049,-0.00452379,0.00457
 983,-0.01744991,0.00755678,0.00384290,-0.10797517,0.18588739,-0.274655
 42,-0.01946020,-0.30014060,0.56390516,-0.11987770,-0.04426165,0.110642
 16,0.01100893,0.00603872,-0.01227750,0.00067205,-0.00104998,-0.0025651
 2,0.00011456,-0.00002026,-0.00005396,-0.00004172,0.00005569,0.00011290
 ,0.00005985,-0.00003042,0.00003225,-0.00003829,-0.00001652,-0.00001320
 ,0.00001615,-0.00001298,0.00000636,0.11644167,-0.04239030,-0.08081260,
 0.09296118,-0.01005724,-0.00270009,0.01634587,-0.00321484,-0.00419512,
 -0.00332360,0.00025160,-0.00004860,-0.00013246,0.00005491,0.00025271,0
 .00011177,0.00001705,0.00001122,0.00002435,-0.00003281,-0.00006818,-0.
 00005116,-0.00000238,-0.00000901,-0.00000001,0.04624222,0.07679358,0.1
 0782262,0.09391249,-0.22972543,0.01197406,0.00816330,-0.01363124,0.000
 69656,-0.00442413,-0.00117410,-0.00046357,0.00000574,0.00017540,0.0001
 1408,0.00011138,0.00011961,-0.00003927,0.00004848,-0.00001995,0.000011
 35,-0.00005944,-0.00002942,-0.00000962,0.00000538,-0.00001303,-0.11771
 891,-0.10617089,0.24173914,0.01064898,0.00708991,-0.01342047,-0.123859
 88,-0.04454942,0.10888743,-0.01336145,-0.01117816,0.02516690,0.0013098
 2,-0.00171654,0.00112874,-0.00001367,0.00024220,-0.00046492,-0.0000417
 2,0.00001360,-0.00001072,0.00007145,0.00001021,-0.00004297,-0.00005817
 ,0.00000801,0.00001058,0.00003345,0.00430617,-0.00088098,0.12898368,-0
 .00991836,-0.00270573,0.01704792,-0.04379885,-0.08137247,0.08203451,0.
 00489787,0.00518630,-0.00576209,-0.00002889,-0.00052945,-0.00153388,-0
 .00001748,-0.00006248,-0.00021400,-0.00004806,-0.00004731,0.00006179,0
 .00000635,0.00003087,-0.00002387,-0.00002627,-0.00000796,0.00000480,0.
 00414368,0.00539183,0.00643823,0.04426999,0.07610485,0.01220562,0.0084
 0152,-0.01360071,0.10775655,0.08241607,-0.22065821,0.00094542,0.002410
 41,-0.00109781,-0.00141399,-0.00067593,0.00018001,-0.00007368,-0.00034
 601,0.00034837,0.00008217,0.00003044,-0.00011016,-0.00003717,-0.000025
 83,0.00007498,0.00006222,-0.00001262,-0.00002625,-0.00063619,0.0063556
 2,0.00181054,-0.11840901,-0.09608513,0.23223432,0.00133541,-0.00137736
 ,0.00064320,-0.01287023,-0.01122287,0.02495163,-0.12450969,-0.04365921
 ,0.10905968,0.01026542,0.00601227,-0.01173104,0.00056501,-0.00064559,-
 0.00244711,0.00013177,-0.00002615,-0.00005725,-0.00002485,0.00004102,0
 .00008263,0.00002507,-0.00002590,0.00003276,0.00009112,0.00076382,-0.0
 0105367,-0.00446335,0.00235572,0.00052406,0.12960585,-0.00018143,-0.00
 043521,-0.00148429,0.00494178,0.00520243,-0.00590637,-0.04287200,-0.07
 953833,0.08230693,-0.01010116,-0.00270391,0.01675531,-0.00282782,-0.00
 348045,-0.00260257,0.00024541,-0.00003620,-0.00015811,0.00005743,0.000
 18148,0.00008798,0.00000409,0.00000694,0.00000665,-0.00026353,0.000162
 63,0.00031419,0.00244839,0.00195296,0.00116057,0.04410214,0.07408113,-
 0.00115870,-0.00087633,0.00042782,0.00059664,0.00231127,-0.00083594,0.
 10787369,0.08270703,-0.21882758,0.01254668,0.00856375,-0.01427267,0.00
 084072,-0.00371201,-0.00099664,-0.00046643,-0.00002003,0.00020898,0.00
 005793,0.00009632,0.00008468,-0.00001244,0.00002191,-0.00001395,0.0004
 9422,-0.00020808,0.00034451,0.00038448,0.00120769,0.00153430,-0.119455
 42,-0.09586446,0.23049896,0.00009634,-0.00000271,0.00000582,0.00055110
 ,-0.00059284,-0.00257209,0.01023860,0.00590589,-0.01157996,-0.12541969
 ,-0.04356144,0.10909206,-0.01308117,-0.01114263,0.02490036,0.00127345,
 -0.00172599,0.00110336,0.00001130,0.00022196,-0.00046037,-0.00008207,0
 .00005265,-0.00005380,-0.00011105,0.00004206,0.00016638,0.00003111,-0.
 00023265,0.00044778,-0.00035646,0.00376968,-0.00072093,0.13087214,0.00
 025133,0.00010369,-0.00013372,-0.00285966,-0.00357986,-0.00259231,-0.0
 1015202,-0.00279588,0.01685194,-0.04287329,-0.07947848,0.08137651,0.00
 486100,0.00522445,-0.00601051,-0.00007092,-0.00059819,-0.00158114,-0.0
 0001753,-0.00009254,-0.00020798,-0.00005742,-0.00004085,0.00004273,0.0
 0003427,0.00032326,0.00000915,0.00080432,0.00014675,-0.00029493,0.0037
 8068,0.00429897,0.00575999,0.04401626,0.07411978,-0.00037693,-0.000004
 59,0.00029828,0.00084331,-0.00374467,-0.00105197,0.01261424,0.00868835
 ,-0.01453977,0.10805495,0.08172649,-0.21800260,0.00078829,0.00212528,-
 0.00072749,-0.00139038,-0.00073967,0.00014976,-0.00009952,-0.00032975,
 0.00031092,0.00011203,-0.00001322,-0.00006890,0.00017811,0.00000519,0.
 00024253,-0.00111461,0.00023223,0.00043911,-0.00073760,0.00576556,0.00
 108570,-0.11967329,-0.09499682,0.22989012,-0.00008206,0.00005265,-0.00
 005380,0.00001128,0.00022194,-0.00046038,0.00127346,-0.00172602,0.0011
 0336,-0.01308119,-0.01114247,0.02490039,-0.12541921,-0.04356066,0.1090
 9229,0.01023854,0.00590583,-0.01158008,0.00055108,-0.00059289,-0.00257
 208,0.00009633,-0.00000271,0.00000581,-0.00003442,0.00003596,-0.000034
 52,0.00029314,0.00000234,-0.00010516,0.00003794,0.00079183,-0.00108440
 ,-0.00433821,0.00242475,0.00047831,0.13087172,-0.00005741,-0.00004086,
 0.00004274,-0.00001756,-0.00009252,-0.00020798,-0.00007088,-0.00059823
 ,-0.00158109,0.00486080,0.00522456,-0.00601066,-0.04287223,-0.07947782
 ,0.08137586,-0.01015207,-0.00279558,0.01685187,-0.00285970,-0.00357987
 ,-0.00259223,0.00025132,0.00010370,-0.00013374,0.00000989,-0.00000708,
 0.00001205,-0.00000274,0.00000374,0.00013622,-0.00021813,0.00015443,0.
 00025726,0.00242473,0.00209294,0.00132236,0.04401540,0.07411875,0.0001
 1204,-0.00001323,-0.00006889,-0.00009954,-0.00032973,0.00031092,-0.001
 39034,-0.00073970,0.00014979,0.00078816,0.00212536,-0.00072756,0.10805
 532,0.08172572,-0.21800379,0.01261413,0.00868827,-0.01453999,0.0008432
 7,-0.00374470,-0.00105193,-0.00037694,-0.00000457,0.00029827,0.0000047
 6,-0.00000120,0.00000364,-0.00009751,0.00013363,-0.00005855,0.00043726
 ,-0.00025620,0.00041527,0.00047829,0.00132235,0.00155321,-0.11967345,-
 0.09499601,0.22989157,0.00002507,-0.00002591,0.00003276,-0.00002486,0.
 00004102,0.00008263,0.00013178,-0.00002615,-0.00005724,0.00056499,-0.0
 0064566,-0.00244717,0.01026541,0.00601216,-0.01173104,-0.12450875,-0.0
 4365725,0.10905998,-0.01287008,-0.01122256,0.02495171,0.00133538,-0.00
 137740,0.00064316,0.00000415,0.00000057,0.00000577,-0.00003401,0.00000
 900,0.00000899,-0.00011192,0.00004665,0.00016820,0.00003793,-0.0002181
 3,0.00043727,-0.00035641,0.00378078,-0.00073753,0.12960470,0.00000410,
 0.00000693,0.00000666,0.00005741,0.00018148,0.00008798,0.00024544,-0.0
 0003621,-0.00015810,-0.00282782,-0.00348047,-0.00260259,-0.01010106,-0
 .00270384,0.01675550,-0.04287015,-0.07953618,0.08230510,0.00494200,0.0
 0520246,-0.00590671,-0.00018147,-0.00043519,-0.00148431,0.00000095,0.0
 0001559,0.00000192,0.00003993,-0.00000276,-0.00000055,0.00004665,0.000
 33659,0.00000730,0.00079181,0.00015444,-0.00025618,0.00376971,0.004298
 98,0.00576557,0.04409988,0.07407897,-0.00001244,0.00002190,-0.00001395
 ,0.00005791,0.00009632,0.00008468,-0.00046641,-0.00002005,0.00020899,0
 .00084076,-0.00371194,-0.00099660,0.01254666,0.00856351,-0.01427274,0.
 10787397,0.08270535,-0.21883064,0.00059679,0.00231132,-0.00083613,-0.0
 0115872,-0.00087629,0.00042783,0.00000520,0.00000212,0.00001135,-0.000
 03762,0.00001518,0.00000660,0.00016820,0.00000729,0.00026068,-0.001084
 41,0.00025725,0.00041527,-0.00072094,0.00575992,0.00108565,-0.11945588
 ,-0.09586252,0.23050227,-0.00005817,0.00000800,0.00001058,0.00007145,0
 .00001021,-0.00004297,-0.00004172,0.00001360,-0.00001072,-0.00001367,0
 .00024218,-0.00046492,0.00130980,-0.00171655,0.00112872,-0.01336126,-0
 .01117779,0.02516695,-0.12385920,-0.04454786,0.10888786,0.01064891,0.0
 0708975,-0.01342044,0.00000003,0.00000357,-0.00000286,0.00000290,-0.00
 000437,0.00000762,-0.00003401,0.00003993,-0.00003761,0.00029314,-0.000
 00274,-0.00009750,0.00003111,0.00080431,-0.00111460,-0.00446328,0.0024
 4847,0.00038453,0.12898278,-0.00002626,-0.00000796,0.00000480,0.000006
 35,0.00003087,-0.00002387,-0.00004806,-0.00004731,0.00006179,-0.000017
 48,-0.00006248,-0.00021399,-0.00002894,-0.00052942,-0.00153389,0.00489
 813,0.00518640,-0.00576257,-0.04379729,-0.08137093,0.08203308,-0.00991
 841,-0.00270564,0.01704825,0.00000272,0.00000285,0.00000184,-0.0000043
 7,0.00000286,0.00000535,0.00000900,-0.00000276,0.00001518,0.00000233,0
 .00000374,0.00013363,-0.00023265,0.00014674,0.00023225,0.00235584,0.00
 195289,0.00120765,0.04426811,0.07610328,0.00006222,-0.00001262,-0.0000
 2625,-0.00003717,-0.00002583,0.00007498,0.00008217,0.00003044,-0.00011
 016,-0.00007368,-0.00034600,0.00034837,-0.00141401,-0.00067591,0.00018
 001,0.00094559,0.00241049,-0.00109808,0.10775698,0.08241468,-0.2206604
 6,0.01220550,0.00840122,-0.01360072,-0.00000158,0.00000140,0.00000367,
 0.00000762,0.00000535,-0.00000700,0.00000899,-0.00000055,0.00000660,-0
 .00010516,0.00013621,-0.00005855,0.00044777,-0.00029494,0.00043912,0.0
 0052414,0.00116056,0.00153429,-0.11840960,-0.09608355,0.23223679,0.000
 01615,-0.00001298,0.00000636,-0.00003829,-0.00001652,-0.00001320,0.000
 05985,-0.00003042,0.00003225,-0.00004172,0.00005570,0.00011290,0.00011
 457,-0.00002026,-0.00005396,0.00067196,-0.00105013,-0.00256522,0.01100
 885,0.00603855,-0.01227745,-0.11987680,-0.04425970,0.11064267,-0.00000
 097,-0.00000243,-0.00000152,0.00000003,0.00000272,-0.00000158,0.000004
 15,0.00000095,0.00000520,-0.00003442,0.00000989,0.00000476,-0.00011105
 ,0.00003428,0.00017812,0.00009112,-0.00026352,0.00049422,0.00003359,0.
 00414386,-0.00063605,0.11644068,-0.00000238,-0.00000901,-0.00000002,-0
 .00003281,-0.00006818,-0.00005116,0.00001705,0.00001122,0.00002435,0.0
 0005491,0.00025270,0.00011178,0.00025161,-0.00004859,-0.00013247,-0.00
 321492,-0.00419507,-0.00332353,-0.01005732,-0.00270003,0.01634625,-0.0
 4238836,-0.08081072,0.09295938,-0.00000243,-0.00000621,-0.00000622,0.0
 0000357,0.00000285,0.00000140,0.00000057,0.00001559,0.00000212,0.00003
 596,-0.00000708,-0.00000120,0.00004207,0.00032326,0.00000519,0.0007638
 2,0.00016262,-0.00020809,0.00430633,0.00539168,0.00635559,0.04624010,0
 .07679162,-0.00000962,0.00000538,-0.00001303,0.00001135,-0.00005944,-0
 .00002942,-0.00003927,0.00004848,-0.00001995,0.00011408,0.00011138,0.0
 0011961,-0.00046357,0.00000575,0.00017540,0.00069651,-0.00442412,-0.00
 117407,0.01197392,0.00816299,-0.01363122,0.10782316,0.09391081,-0.2297
 2821,-0.00000152,-0.00000622,-0.00000101,-0.00000286,0.00000184,0.0000
 0367,0.00000577,0.00000192,0.00001135,-0.00003452,0.00001206,0.0000036
 4,0.00016639,0.00000915,0.00024252,-0.00105366,0.00031421,0.00034452,-
 0.00088086,0.00643818,0.00181055,-0.11771952,-0.10616902,0.24174209,-0
 .00005129,0.00001675,-0.00000075,0.00008119,0.00007987,0.00000845,-0.0
 0012915,0.00000780,0.00002055,-0.00001497,-0.00024166,-0.00039773,-0.0
 0058187,0.00006625,0.00030140,0.00188021,0.00372926,-0.00056871,-0.010
 14765,0.00171932,0.00470757,-0.32254107,0.07133421,0.04050467,0.000004
 40,0.00000618,0.00000297,-0.00000229,-0.00000317,0.00000613,-0.0000036
 9,-0.00001668,-0.00001416,0.00001017,-0.00000523,0.00001476,0.00000778
 ,0.00007445,-0.00003621,0.00031246,-0.00018564,-0.00001766,0.00045989,
 -0.00160971,-0.00136986,-0.00834208,0.00397606,-0.00058873,0.33906979,
 0.00003934,-0.00000873,-0.00001155,0.00004303,0.00019114,0.00019412,0.
 00008446,-0.00003065,-0.00009559,-0.00031603,-0.00115191,-0.00038403,0
 .00090530,0.00021282,-0.00046853,0.00256743,0.00583840,0.00769708,0.01
 930423,-0.00023809,-0.00311686,0.06891726,-0.05644665,0.00259459,0.000
 00474,0.00001857,0.00001262,0.00000379,0.00000301,-0.00000588,-0.00001
 951,-0.00005302,-0.00003218,0.00000743,0.00002241,-0.00000185,-0.00001
 250,0.00010246,0.00008884,0.00008285,-0.00014328,-0.00023673,-0.001788
 94,-0.00409779,-0.00347068,-0.01087484,0.00487479,0.00162405,-0.078939
 73,0.05095255,-0.00003479,-0.00000006,0.00001465,0.00006395,0.00017539
 ,0.00003773,-0.00009495,-0.00005662,0.00006799,-0.00028564,-0.00042185
 ,-0.00073262,-0.00096276,-0.00004198,0.00076002,0.00118168,0.00710642,
 0.00050546,-0.02178736,0.00582347,0.00650980,0.04414630,0.00136576,-0.
 05597159,0.00000513,0.00001189,0.00000802,-0.00000436,-0.00000234,0.00
 000613,-0.00000989,-0.00003362,-0.00002528,-0.00000433,0.00000459,0.00
 001897,0.00009480,0.00004464,0.00004176,-0.00042219,-0.00010022,0.0000
 9321,-0.00109979,-0.00356181,-0.00107930,0.02178688,-0.00592624,0.0001
 3553,-0.04255877,-0.00436474,0.04963215,-0.32254487,0.07132893,0.04050
 146,-0.01014785,0.00171905,0.00470746,0.00188010,0.00372907,-0.0005688
 6,-0.00058188,0.00006624,0.00030140,-0.00001496,-0.00024163,-0.0003977
 1,-0.00012915,0.00000780,0.00002056,0.00008119,0.00007986,0.00000845,-
 0.00005129,0.00001675,-0.00000075,-0.00834219,0.00397587,-0.00058886,0
 .00045998,-0.00160957,-0.00136977,0.00031246,-0.00018564,-0.00001765,0
 .00000778,0.00007445,-0.00003621,0.00001017,-0.00000524,0.00001476,-0.
 00000369,-0.00001667,-0.00001416,-0.00000229,-0.00000317,0.00000613,0.
 00000440,0.00000618,0.00000297,-0.00001184,-0.00000832,-0.00001392,0.3
 3907392,0.06891191,-0.05644382,0.00259618,0.01930410,-0.00023776,-0.00
 311649,0.00256734,0.00583852,0.00769708,0.00090527,0.00021283,-0.00046
 853,-0.00031603,-0.00115192,-0.00038403,0.00008446,-0.00003065,-0.0000
 9559,0.00004303,0.00019115,0.00019412,0.00003934,-0.00000874,-0.000011
 55,-0.01087511,0.00487466,0.00162392,-0.00178883,-0.00409785,-0.003470
 73,0.00008286,-0.00014328,-0.00023672,-0.00001250,0.00010246,0.0000888
 4,0.00000744,0.00002241,-0.00000185,-0.00001951,-0.00005302,-0.0000321
 8,0.00000379,0.00000301,-0.00000588,0.00000474,0.00001857,0.00001262,-
 0.00000832,-0.00004602,-0.00002268,-0.07893398,0.05094945,0.04414309,0
 .00136750,-0.05597061,-0.02178764,0.00582305,0.00650965,0.00118162,0.0
 0710647,0.00050545,-0.00096278,-0.00004198,0.00076002,-0.00028564,-0.0
 0042185,-0.00073263,-0.00009495,-0.00005662,0.00006799,0.00006395,0.00
 017539,0.00003773,-0.00003479,-0.00000006,0.00001465,0.02178689,-0.005
 92578,0.00013577,-0.00109972,-0.00356185,-0.00107933,-0.00042219,-0.00
 010023,0.00009321,0.00009480,0.00004464,0.00004176,-0.00000433,0.00000
 459,0.00001897,-0.00000989,-0.00003362,-0.00002528,-0.00000436,-0.0000
 0234,0.00000613,0.00000513,0.00001189,0.00000802,-0.00001392,-0.000022
 68,-0.00002262,-0.04255528,-0.00436652,0.04963112\\-0.00006053,0.00001
 637,0.00000601,-0.00004925,0.00011662,-0.00015091,0.00005837,-0.000190
 66,0.00025759,-0.00011219,0.00018787,-0.00022631,0.00011210,-0.0001880
 9,0.00022613,-0.00005836,0.00019065,-0.00025759,0.00004917,-0.00011681
 ,0.00015076,0.00006050,-0.00001646,-0.00000606,0.00003408,-0.00002112,
 0.00001463,0.00003486,-0.00003794,0.00003955,-0.00003494,0.00004632,-0
 .00005168,0.00004010,-0.00003601,0.00003405,-0.00004004,0.00003615,-0.
 00003394,0.00003504,-0.00004603,0.00005188,-0.00003482,0.00003803,-0.0
 0003949,-0.00003405,0.00002123,-0.00001456,-0.00001656,-0.00000060,0.0
 0000919,0.00001652,0.00000049,-0.00000926\\\@


 A ROPE OVER THE TOP OF A FENCE HAS THE SAME LENGTH ON EACH SIDE.
 WEIGHS 1/3 POUND PER FOOT.  ON ONE END HANGS A MONKEY HOLDING A
 BANANA, AND ON THE OTHER END A WEIGHT EQUAL TO THE WEIGHT
 OF THE MONKEY.  THE BANANA WEIGHS TWO OUNCES PER INCH.
 THE ROPE IS AS LONG AS THE AGE OF THE MONKEY, 
 AND THE WEIGHT OF THE MONKEY (IN OUNCES) IS AS MUCH
 AS THE AGE OF THE MONKEY'S MOTHER.  THE COMBINED AGES OF MONKEY
 AND MOTHER ARE THIRTY YEARS.  HALF THE WEIGHT OF THE MONKEY,
  PLUS THE WEIGHT OF THE BANANA, IS ONE FOURTH AS MUCH AS THE WEIGHT
 OF THE WEIGHT AND THE ROPE.
 THE MONKEY'S MOTHER IS HALF AS OLD AS THE MONKEY WILL BE
 WHEN IT IS 3 TIMES AS OLD AS ITS MOTHER WAS WHEN
 SHE WAS HALF AS OLD AS THE MONKEY WILL BE WHEN IT IS
 AS OLD AS ITS MOTHER WILL BE WHEN SHE IS 4 TIMES AS
 OLD AS THE MONKEY WAS WHEN IT WAS TWICE AS OLD AS 
 ITS MOTHER WAS WHEN SHE WAS ONE THIRD AS OLD AS THE
 MONKEY WAS WHEN IT WAS AS OLD AS ITS MOTHER WAS WHEN 
 SHE WAS 3 TIMES AS OLD AS THE MONKEY WAS WHEN IT WAS AS OLD AS ITS
 MOTHER WAS WHEN SHE WAS 3 TIMES AS OLD AS THE MONKEY 
 WAS WHEN IT WAS ONE FOURTH WAS OLD AS IT IS NOW.

 HOW LONG IS THE BANANA?
 Job cpu time:       0 days  0 hours  7 minutes 40.8 seconds.
 Elapsed time:       0 days  0 hours  7 minutes 40.8 seconds.
 File lengths (MBytes):  RWF=     59 Int=      0 D2E=      0 Chk=      4 Scr=      1
 Normal termination of Gaussian 16 at Fri Oct 27 15:30:40 2023.
