 Entering Gaussian System, Link 0=g16
 Input=./com/5.com
 Output=./log/5.log
 Initial command:
 /home/shohei/gaussian/g16/l1.exe "/home/shohei/gaussian/scratch/Gau-14231.inp" -scrdir="/home/shohei/gaussian/scratch/"
 Entering Link 1 = /home/shohei/gaussian/g16/l1.exe PID=     14233.
  
 Copyright (c) 1988-2017, Gaussian, Inc.  All Rights Reserved.
  
 This is part of the Gaussian(R) 16 program.  It is based on
 the Gaussian(R) 09 system (copyright 2009, Gaussian, Inc.),
 the Gaussian(R) 03 system (copyright 2003, Gaussian, Inc.),
 the Gaussian(R) 98 system (copyright 1998, Gaussian, Inc.),
 the Gaussian(R) 94 system (copyright 1995, Gaussian, Inc.),
 the Gaussian 92(TM) system (copyright 1992, Gaussian, Inc.),
 the Gaussian 90(TM) system (copyright 1990, Gaussian, Inc.),
 the Gaussian 88(TM) system (copyright 1988, Gaussian, Inc.),
 the Gaussian 86(TM) system (copyright 1986, Carnegie Mellon
 University), and the Gaussian 82(TM) system (copyright 1983,
 Carnegie Mellon University). Gaussian is a federally registered
 trademark of Gaussian, Inc.
  
 This software contains proprietary and confidential information,
 including trade secrets, belonging to Gaussian, Inc.
  
 This software is provided under written license and may be
 used, copied, transmitted, or stored only in accord with that
 written license.
  
 The following legend is applicable only to US Government
 contracts under FAR:
  
                    RESTRICTED RIGHTS LEGEND
  
 Use, reproduction and disclosure by the US Government is
 subject to restrictions as set forth in subparagraphs (a)
 and (c) of the Commercial Computer Software - Restricted
 Rights clause in FAR 52.227-19.
  
 Gaussian, Inc.
 340 Quinnipiac St., Bldg. 40, Wallingford CT 06492
  
  
 ---------------------------------------------------------------
 Warning -- This program may not be used in any manner that
 competes with the business of Gaussian, Inc. or will provide
 assistance to any competitor of Gaussian, Inc.  The licensee
 of this program is prohibited from giving any competitor of
 Gaussian, Inc. access to this program.  By using this program,
 the user acknowledges that Gaussian, Inc. is engaged in the
 business of creating and licensing software in the field of
 computational chemistry and represents and warrants to the
 licensee that it is not a competitor of Gaussian, Inc. and that
 it will not use this program in any manner prohibited above.
 ---------------------------------------------------------------
  

 Cite this work as:
 Gaussian 16, Revision B.01,
 M. J. Frisch, G. W. Trucks, H. B. Schlegel, G. E. Scuseria, 
 M. A. Robb, J. R. Cheeseman, G. Scalmani, V. Barone, 
 G. A. Petersson, H. Nakatsuji, X. Li, M. Caricato, A. V. Marenich, 
 J. Bloino, B. G. Janesko, R. Gomperts, B. Mennucci, H. P. Hratchian, 
 J. V. Ortiz, A. F. Izmaylov, J. L. Sonnenberg, D. Williams-Young, 
 F. Ding, F. Lipparini, F. Egidi, J. Goings, B. Peng, A. Petrone, 
 T. Henderson, D. Ranasinghe, V. G. Zakrzewski, J. Gao, N. Rega, 
 G. Zheng, W. Liang, M. Hada, M. Ehara, K. Toyota, R. Fukuda, 
 J. Hasegawa, M. Ishida, T. Nakajima, Y. Honda, O. Kitao, H. Nakai, 
 T. Vreven, K. Throssell, J. A. Montgomery, Jr., J. E. Peralta, 
 F. Ogliaro, M. J. Bearpark, J. J. Heyd, E. N. Brothers, K. N. Kudin, 
 V. N. Staroverov, T. A. Keith, R. Kobayashi, J. Normand, 
 K. Raghavachari, A. P. Rendell, J. C. Burant, S. S. Iyengar, 
 J. Tomasi, M. Cossi, J. M. Millam, M. Klene, C. Adamo, R. Cammi, 
 J. W. Ochterski, R. L. Martin, K. Morokuma, O. Farkas, 
 J. B. Foresman, and D. J. Fox, Gaussian, Inc., Wallingford CT, 2016.
 
 ******************************************
 Gaussian 16:  EM64L-G16RevB.01 20-Dec-2017
                27-Oct-2023 
 ******************************************
 %chk=./chk/5.chk
 ---------------------------
 # B3LYP/6-31G(d,p) OPT FREQ
 ---------------------------
 1/18=20,19=15,26=3,38=1/1,3;
 2/9=110,12=2,17=6,18=5,40=1/2;
 3/5=1,6=6,7=101,11=2,25=1,30=1,71=1,74=-5/1,2,3;
 4//1;
 5/5=2,38=5/2;
 6/7=2,8=2,9=2,10=2,28=1/1;
 7//1,2,3,16;
 1/18=20,19=15,26=3/3(2);
 2/9=110/2;
 99//99;
 2/9=110/2;
 3/5=1,6=6,7=101,11=2,25=1,30=1,71=1,74=-5/1,2,3;
 4/5=5,16=3,69=1/1;
 5/5=2,38=5/2;
 7//1,2,3,16;
 1/18=20,19=15,26=3/3(-5);
 2/9=110/2;
 6/7=2,8=2,9=2,10=2,19=2,28=1/1;
 99/9=1/99;
 -----
 5poly
 -----
 Symbolic Z-matrix:
 Charge =  0 Multiplicity = 1
 C                     16.95844  -6.46426  -0.9637 
 C                     17.55345  -7.26216  -0.07402 
 C                     18.96365  -7.67075  -0.23779 
 C                     19.55613  -8.47284   0.65666 
 C                     20.96644  -8.88285   0.49297 
 C                     21.55782  -9.68736   1.38607 
 C                     22.96768  -10.0987   1.2219 
 C                     23.55794  -10.90557   2.11353 
 C                     24.96703  -11.31744   1.94858 
 C                     25.55866  -12.12265   2.83393 
 H                     17.49411  -6.09318  -1.83253 
 H                     16.98347  -7.61281   0.78224 
 H                     19.52425  -7.31314  -1.09856 
 H                     18.99458  -8.83033   1.51686 
 H                     21.52821  -8.52464  -0.36675 
 H                     20.99578  -10.04602   2.24544 
 H                     23.53021  -9.73948   0.36307 
 H                     22.99594  -11.26561   2.97237 
 H                     25.53877  -10.96373   1.09476 
 H                     25.02096  -12.49734   3.69996 
 H                     26.59477  -12.41366   2.69433 
 H                     15.92144  -6.17598  -0.82503 
 

 GradGradGradGradGradGradGradGradGradGradGradGradGradGradGradGradGradGrad
 Berny optimization.
 Initialization pass.
                           ----------------------------
                           !    Initial Parameters    !
                           ! (Angstroms and Degrees)  !
 --------------------------                            --------------------------
 ! Name  Definition              Value          Derivative Info.                !
 --------------------------------------------------------------------------------
 ! R1    R(1,2)                  1.335          estimate D2E/DX2                !
 ! R2    R(1,11)                 1.0861         estimate D2E/DX2                !
 ! R3    R(1,22)                 1.0852         estimate D2E/DX2                !
 ! R4    R(2,3)                  1.4773         estimate D2E/DX2                !
 ! R5    R(2,12)                 1.0867         estimate D2E/DX2                !
 ! R6    R(3,4)                  1.3396         estimate D2E/DX2                !
 ! R7    R(3,13)                 1.0877         estimate D2E/DX2                !
 ! R8    R(4,5)                  1.4778         estimate D2E/DX2                !
 ! R9    R(4,14)                 1.0877         estimate D2E/DX2                !
 ! R10   R(5,6)                  1.3396         estimate D2E/DX2                !
 ! R11   R(5,15)                 1.0877         estimate D2E/DX2                !
 ! R12   R(6,7)                  1.4778         estimate D2E/DX2                !
 ! R13   R(6,16)                 1.0877         estimate D2E/DX2                !
 ! R14   R(7,8)                  1.3396         estimate D2E/DX2                !
 ! R15   R(7,17)                 1.0877         estimate D2E/DX2                !
 ! R16   R(8,9)                  1.4773         estimate D2E/DX2                !
 ! R17   R(8,18)                 1.0877         estimate D2E/DX2                !
 ! R18   R(9,10)                 1.335          estimate D2E/DX2                !
 ! R19   R(9,19)                 1.0867         estimate D2E/DX2                !
 ! R20   R(10,20)                1.0861         estimate D2E/DX2                !
 ! R21   R(10,21)                1.0852         estimate D2E/DX2                !
 ! A1    A(2,1,11)             121.1659         estimate D2E/DX2                !
 ! A2    A(2,1,22)             119.9674         estimate D2E/DX2                !
 ! A3    A(11,1,22)            118.8666         estimate D2E/DX2                !
 ! A4    A(1,2,3)              121.1233         estimate D2E/DX2                !
 ! A5    A(1,2,12)             118.9582         estimate D2E/DX2                !
 ! A6    A(3,2,12)             119.9185         estimate D2E/DX2                !
 ! A7    A(2,3,4)              120.9162         estimate D2E/DX2                !
 ! A8    A(2,3,13)             119.2612         estimate D2E/DX2                !
 ! A9    A(4,3,13)             119.8225         estimate D2E/DX2                !
 ! A10   A(3,4,5)              120.9482         estimate D2E/DX2                !
 ! A11   A(3,4,14)             119.7701         estimate D2E/DX2                !
 ! A12   A(5,4,14)             119.2817         estimate D2E/DX2                !
 ! A13   A(4,5,6)              120.9353         estimate D2E/DX2                !
 ! A14   A(4,5,15)             119.2801         estimate D2E/DX2                !
 ! A15   A(6,5,15)             119.7846         estimate D2E/DX2                !
 ! A16   A(5,6,7)              120.948          estimate D2E/DX2                !
 ! A17   A(5,6,16)             119.7793         estimate D2E/DX2                !
 ! A18   A(7,6,16)             119.2727         estimate D2E/DX2                !
 ! A19   A(6,7,8)              120.9372         estimate D2E/DX2                !
 ! A20   A(6,7,17)             119.2877         estimate D2E/DX2                !
 ! A21   A(8,7,17)             119.775          estimate D2E/DX2                !
 ! A22   A(7,8,9)              120.9243         estimate D2E/DX2                !
 ! A23   A(7,8,18)             119.8194         estimate D2E/DX2                !
 ! A24   A(9,8,18)             119.2562         estimate D2E/DX2                !
 ! A25   A(8,9,10)             121.1189         estimate D2E/DX2                !
 ! A26   A(8,9,19)             119.9207         estimate D2E/DX2                !
 ! A27   A(10,9,19)            118.9604         estimate D2E/DX2                !
 ! A28   A(9,10,20)            121.1651         estimate D2E/DX2                !
 ! A29   A(9,10,21)            119.9695         estimate D2E/DX2                !
 ! A30   A(20,10,21)           118.8654         estimate D2E/DX2                !
 ! D1    D(11,1,2,3)            -0.0029         estimate D2E/DX2                !
 ! D2    D(11,1,2,12)         -179.9854         estimate D2E/DX2                !
 ! D3    D(22,1,2,3)           179.9862         estimate D2E/DX2                !
 ! D4    D(22,1,2,12)            0.0037         estimate D2E/DX2                !
 ! D5    D(1,2,3,4)           -179.9203         estimate D2E/DX2                !
 ! D6    D(1,2,3,13)             0.046          estimate D2E/DX2                !
 ! D7    D(12,2,3,4)             0.0621         estimate D2E/DX2                !
 ! D8    D(12,2,3,13)         -179.9717         estimate D2E/DX2                !
 ! D9    D(2,3,4,5)            179.9521         estimate D2E/DX2                !
 ! D10   D(2,3,4,14)            -0.0043         estimate D2E/DX2                !
 ! D11   D(13,3,4,5)            -0.014          estimate D2E/DX2                !
 ! D12   D(13,3,4,14)         -179.9704         estimate D2E/DX2                !
 ! D13   D(3,4,5,6)           -179.8517         estimate D2E/DX2                !
 ! D14   D(3,4,5,15)             0.097          estimate D2E/DX2                !
 ! D15   D(14,4,5,6)             0.1049         estimate D2E/DX2                !
 ! D16   D(14,4,5,15)         -179.9465         estimate D2E/DX2                !
 ! D17   D(4,5,6,7)            179.9345         estimate D2E/DX2                !
 ! D18   D(4,5,6,16)            -0.0139         estimate D2E/DX2                !
 ! D19   D(15,5,6,7)            -0.0138         estimate D2E/DX2                !
 ! D20   D(15,5,6,16)         -179.9622         estimate D2E/DX2                !
 ! D21   D(5,6,7,8)           -179.8517         estimate D2E/DX2                !
 ! D22   D(5,6,7,17)             0.1049         estimate D2E/DX2                !
 ! D23   D(16,6,7,8)             0.0969         estimate D2E/DX2                !
 ! D24   D(16,6,7,17)         -179.9465         estimate D2E/DX2                !
 ! D25   D(6,7,8,9)            179.9521         estimate D2E/DX2                !
 ! D26   D(6,7,8,18)            -0.014          estimate D2E/DX2                !
 ! D27   D(17,7,8,9)            -0.0043         estimate D2E/DX2                !
 ! D28   D(17,7,8,18)         -179.9704         estimate D2E/DX2                !
 ! D29   D(7,8,9,10)          -179.9203         estimate D2E/DX2                !
 ! D30   D(7,8,9,19)             0.0621         estimate D2E/DX2                !
 ! D31   D(18,8,9,10)            0.046          estimate D2E/DX2                !
 ! D32   D(18,8,9,19)         -179.9717         estimate D2E/DX2                !
 ! D33   D(8,9,10,20)           -0.0029         estimate D2E/DX2                !
 ! D34   D(8,9,10,21)          179.9862         estimate D2E/DX2                !
 ! D35   D(19,9,10,20)        -179.9854         estimate D2E/DX2                !
 ! D36   D(19,9,10,21)           0.0037         estimate D2E/DX2                !
 --------------------------------------------------------------------------------
 Trust Radius=3.00D-01 FncErr=1.00D-07 GrdErr=1.00D-06 EigMax=2.50D+02 EigMin=1.00D-04
 Number of steps in this run=     97 maximum allowed number of steps=    132.
 GradGradGradGradGradGradGradGradGradGradGradGradGradGradGradGradGradGrad

                          Input orientation:                          
 ---------------------------------------------------------------------
 Center     Atomic      Atomic             Coordinates (Angstroms)
 Number     Number       Type             X           Y           Z
 ---------------------------------------------------------------------
      1          6           0       16.958436   -6.464261   -0.963699
      2          6           0       17.553450   -7.262162   -0.074016
      3          6           0       18.963646   -7.670751   -0.237792
      4          6           0       19.556127   -8.472837    0.656664
      5          6           0       20.966437   -8.882850    0.492975
      6          6           0       21.557816   -9.687361    1.386072
      7          6           0       22.967677  -10.098705    1.221901
      8          6           0       23.557944  -10.905567    2.113532
      9          6           0       24.967033  -11.317438    1.948578
     10          6           0       25.558662  -12.122652    2.833933
     11          1           0       17.494106   -6.093177   -1.832529
     12          1           0       16.983473   -7.612809    0.782243
     13          1           0       19.524248   -7.313145   -1.098564
     14          1           0       18.994583   -8.830332    1.516859
     15          1           0       21.528209   -8.524636   -0.366755
     16          1           0       20.995781  -10.046021    2.245441
     17          1           0       23.530210   -9.739477    0.363075
     18          1           0       22.995940  -11.265613    2.972373
     19          1           0       25.538771  -10.963728    1.094762
     20          1           0       25.020959  -12.497344    3.699963
     21          1           0       26.594768  -12.413658    2.694332
     22          1           0       15.921438   -6.175984   -0.825025
 ---------------------------------------------------------------------
                    Distance matrix (angstroms):
                    1          2          3          4          5
     1  C    0.000000
     2  C    1.335000   0.000000
     3  C    2.450189   1.477301   0.000000
     4  C    3.661687   2.451599   1.339562   0.000000
     5  C    4.902606   3.820548   2.452423   1.477796   0.000000
     6  C    6.088029   4.903916   3.665156   2.452319   1.339623
     7  C    7.355067   6.248137   4.904888   3.821206   2.452467
     8  C    8.529247   7.356202   6.091005   4.904608   3.665174
     9  C    9.806748   8.688921   7.356575   6.248096   4.904158
    10  C   10.972843   9.806321   8.529311   7.354731   6.088097
    11  H    1.086053   2.112444   2.681692   4.013825   5.024672
    12  H    2.090000   1.086741   2.228208   2.715505   4.190547
    13  H    2.705954   2.221788   1.087697   2.103979   2.660240
    14  H    3.987149   2.658365   2.103422   1.087690   2.222455
    15  H    5.048199   4.180699   2.706055   2.222426   1.087676
    16  H    6.279151   4.997939   3.992234   2.659272   2.103561
    17  H    7.461607   6.484581   5.049176   4.181377   2.706218
    18  H    8.660086   7.411396   6.283914   4.999442   3.992975
    19  H    9.904778   8.878794   7.473398   6.495268   5.059490
    20  H   11.097393   9.869840   8.688669   7.437925   6.307812
    21  H   11.901068  10.767873   9.451272   8.320134   6.999335
    22  H    1.085218   2.099348   3.440087   4.547735   5.875054
                    6          7          8          9         10
     6  C    0.000000
     7  C    1.477789   0.000000
     8  C    2.452292   1.339570   0.000000
     9  C    3.820513   2.451693   1.477288   0.000000
    10  C    4.902418   3.661722   2.450131   1.335008   0.000000
    11  H    6.308034   7.438667   8.689109   9.870882  11.098085
    12  H    5.058952   6.494896   7.472500   8.878167   9.903635
    13  H    3.993209   5.000110   6.284406   7.412378   8.660833
    14  H    2.705877   4.181058   5.048453   6.483998   7.460642
    15  H    2.103618   2.659622   3.992553   4.998602   6.279703
    16  H    1.087675   2.222338   2.705716   4.180368   5.047633
    17  H    2.222516   1.087690   2.103482   2.658617   3.987390
    18  H    2.659967   2.103955   1.087699   2.221722   2.705776
    19  H    4.190701   2.715687   2.228217   1.086737   2.090027
    20  H    5.024287   4.013756   2.681591   2.112448   1.086060
    21  H    5.874957   4.547840   3.440053   2.099373   1.085214
    22  H    6.999105   8.320283   9.450941  10.768018  11.900710
                   11         12         13         14         15
    11  H    0.000000
    12  H    3.067093   0.000000
    13  H    2.479617   3.175338   0.000000
    14  H    4.578412   2.463045   3.069665   0.000000
    15  H    4.932998   4.775589   2.453388   3.171862   0.000000
    16  H    6.672072   4.915291   4.562498   2.452249   3.069473
    17  H    7.385846   6.896244   4.906241   4.767565   2.452855
    18  H    8.950494   7.368134   6.651854   4.905096   4.562561
    19  H    9.849261   9.193447   7.369662   6.896082   4.916281
    20  H   11.325871   9.847485   8.950733   7.384452   6.672325
    21  H   11.969252  10.912435   9.507552   8.484661   7.082709
    22  H    1.869547   2.403267   3.787901   4.687665   6.096068
                   16         17         18         19         20
    16  H    0.000000
    17  H    3.171846   0.000000
    18  H    2.452849   3.069686   0.000000
    19  H    4.775459   2.463428   3.175303   0.000000
    20  H    4.932209   4.578536   2.479366   3.067113   0.000000
    21  H    6.095561   4.688019   3.787727   2.403342   1.869537
    22  H    7.081942   8.485486   9.506478  10.913348  11.968141
                   21         22
    21  H    0.000000
    22  H   12.853576   0.000000
 Stoichiometry    C10H12
 Framework group  C1[X(C10H12)]
 Deg. of freedom    60
 Full point group                 C1      NOp   1
 Largest Abelian subgroup         C1      NOp   1
 Largest concise Abelian subgroup C1      NOp   1
                         Standard orientation:                         
 ---------------------------------------------------------------------
 Center     Atomic      Atomic             Coordinates (Angstroms)
 Number     Number       Type             X           Y           Z
 ---------------------------------------------------------------------
      1          6           0        5.481292    0.238557    0.005808
      2          6           0        4.323433   -0.425948    0.001250
      3          6           0        3.031669    0.290823   -0.000529
      4          6           0        1.872266   -0.380148   -0.003506
      5          6           0        0.579668    0.336140   -0.004227
      6          6           0       -0.579639   -0.335126   -0.004229
      7          6           0       -1.872391    0.380872   -0.003502
      8          6           0       -3.031523   -0.290584   -0.000531
      9          6           0       -4.323674    0.425462    0.001254
     10          6           0       -5.481119   -0.239778    0.005806
     11          1           0        5.506195    1.324322    0.008287
     12          1           0        4.340386   -1.512554   -0.000878
     13          1           0        3.027180    1.378510    0.001163
     14          1           0        1.877751   -1.467824   -0.004707
     15          1           0        0.574215    1.423803   -0.003911
     16          1           0       -0.574084   -1.422787   -0.003923
     17          1           0       -1.878232    1.468546   -0.004695
     18          1           0       -3.026524   -1.378271    0.001151
     19          1           0       -4.341272    1.512055   -0.000864
     20          1           0       -5.505319   -1.325566    0.008275
     21          1           0       -6.419589    0.305164    0.007273
     22          1           0        6.419401   -0.307015    0.007270
 ---------------------------------------------------------------------
 Rotational constants (GHZ):          14.6387183           0.2988914           0.2929114
 Standard basis: 6-31G(d,p) (6D, 7F)
 There are   210 symmetry adapted cartesian basis functions of A   symmetry.
 There are   210 symmetry adapted basis functions of A   symmetry.
   210 basis functions,   364 primitive gaussians,   210 cartesian basis functions
    36 alpha electrons       36 beta electrons
       nuclear repulsion energy       412.3473650233 Hartrees.
 NAtoms=   22 NActive=   22 NUniq=   22 SFac= 1.00D+00 NAtFMM=   60 NAOKFM=F Big=F
 Integral buffers will be    131072 words long.
 Raffenetti 2 integral format.
 Two-electron integral symmetry is turned on.
 One-electron integrals computed using PRISM.
 NBasis=   210 RedAO= T EigKep=  1.53D-03  NBF=   210
 NBsUse=   210 1.00D-06 EigRej= -1.00D+00 NBFU=   210
 ExpMin= 1.61D-01 ExpMax= 3.05D+03 ExpMxC= 4.57D+02 IAcc=3 IRadAn=         5 AccDes= 0.00D+00
 Harris functional with IExCor=  402 and IRadAn=       5 diagonalized for initial guess.
 HarFok:  IExCor=  402 AccDes= 0.00D+00 IRadAn=         5 IDoV= 1 UseB2=F ITyADJ=14
 ICtDFT=  3500011 ScaDFX=  1.000000  1.000000  1.000000  1.000000
 FoFCou: FMM=F IPFlag=           0 FMFlag=      100000 FMFlg1=           0
         NFxFlg=           0 DoJE=T BraDBF=F KetDBF=T FulRan=T
         wScrn=  0.000000 ICntrl=       500 IOpCl=  0 I1Cent=   200000004 NGrid=           0
         NMat0=    1 NMatS0=      1 NMatT0=    0 NMatD0=    1 NMtDS0=    0 NMtDT0=    0
 Petite list used in FoFCou.
 Requested convergence on RMS density matrix=1.00D-08 within 128 cycles.
 Requested convergence on MAX density matrix=1.00D-06.
 Requested convergence on             energy=1.00D-06.
 No special actions if energy rises.
 Integral accuracy reduced to 1.0D-05 until final iterations.
 Initial convergence to 1.0D-05 achieved.  Increase integral accuracy.
 SCF Done:  E(RB3LYP) =  -388.223499415     A.U. after   13 cycles
            NFock= 13  Conv=0.47D-08     -V/T= 2.0100

 **********************************************************************

            Population analysis using the SCF Density.

 **********************************************************************

 Orbital symmetries:
       Occupied  (A) (A) (A) (A) (A) (A) (A) (A) (A) (A) (A) (A)
                 (A) (A) (A) (A) (A) (A) (A) (A) (A) (A) (A) (A)
                 (A) (A) (A) (A) (A) (A) (A) (A) (A) (A) (A) (A)
       Virtual   (A) (A) (A) (A) (A) (A) (A) (A) (A) (A) (A) (A)
                 (A) (A) (A) (A) (A) (A) (A) (A) (A) (A) (A) (A)
                 (A) (A) (A) (A) (A) (A) (A) (A) (A) (A) (A) (A)
                 (A) (A) (A) (A) (A) (A) (A) (A) (A) (A) (A) (A)
                 (A) (A) (A) (A) (A) (A) (A) (A) (A) (A) (A) (A)
                 (A) (A) (A) (A) (A) (A) (A) (A) (A) (A) (A) (A)
                 (A) (A) (A) (A) (A) (A) (A) (A) (A) (A) (A) (A)
                 (A) (A) (A) (A) (A) (A) (A) (A) (A) (A) (A) (A)
                 (A) (A) (A) (A) (A) (A) (A) (A) (A) (A) (A) (A)
                 (A) (A) (A) (A) (A) (A) (A) (A) (A) (A) (A) (A)
                 (A) (A) (A) (A) (A) (A) (A) (A) (A) (A) (A) (A)
                 (A) (A) (A) (A) (A) (A) (A) (A) (A) (A) (A) (A)
                 (A) (A) (A) (A) (A) (A) (A) (A) (A) (A) (A) (A)
                 (A) (A) (A) (A) (A) (A) (A) (A) (A) (A) (A) (A)
                 (A) (A) (A) (A) (A) (A)
 The electronic state is 1-A.
 Alpha  occ. eigenvalues --  -10.19174 -10.19173 -10.19151 -10.19132 -10.19120
 Alpha  occ. eigenvalues --  -10.19055 -10.18988 -10.18987 -10.17960 -10.17959
 Alpha  occ. eigenvalues --   -0.82456  -0.80702  -0.77954  -0.74385  -0.70601
 Alpha  occ. eigenvalues --   -0.62104  -0.57541  -0.56648  -0.55269  -0.54416
 Alpha  occ. eigenvalues --   -0.47864  -0.47692  -0.45055  -0.43617  -0.40726
 Alpha  occ. eigenvalues --   -0.39558  -0.38127  -0.37578  -0.36680  -0.35316
 Alpha  occ. eigenvalues --   -0.34678  -0.33568  -0.32467  -0.28949  -0.24307
 Alpha  occ. eigenvalues --   -0.19223
 Alpha virt. eigenvalues --   -0.05446   0.00206   0.05498   0.08818   0.08908
 Alpha virt. eigenvalues --    0.09860   0.11160   0.12551   0.12654   0.14094
 Alpha virt. eigenvalues --    0.14786   0.14965   0.15948   0.18093   0.19397
 Alpha virt. eigenvalues --    0.20287   0.20426   0.28163   0.31158   0.32038
 Alpha virt. eigenvalues --    0.34838   0.35897   0.37136   0.38244   0.40908
 Alpha virt. eigenvalues --    0.41910   0.47723   0.49313   0.51972   0.53314
 Alpha virt. eigenvalues --    0.55630   0.56546   0.57178   0.57999   0.58978
 Alpha virt. eigenvalues --    0.59314   0.60150   0.61142   0.62216   0.62879
 Alpha virt. eigenvalues --    0.64473   0.65481   0.66235   0.68180   0.68987
 Alpha virt. eigenvalues --    0.70062   0.73511   0.73719   0.79171   0.81307
 Alpha virt. eigenvalues --    0.83263   0.83816   0.84881   0.85500   0.85986
 Alpha virt. eigenvalues --    0.87078   0.87800   0.88675   0.91300   0.91891
 Alpha virt. eigenvalues --    0.93248   0.94123   0.97158   1.04075   1.04296
 Alpha virt. eigenvalues --    1.05317   1.06927   1.08565   1.10665   1.12548
 Alpha virt. eigenvalues --    1.20507   1.21142   1.28243   1.30096   1.30323
 Alpha virt. eigenvalues --    1.31640   1.31954   1.32418   1.33793   1.34315
 Alpha virt. eigenvalues --    1.36571   1.38607   1.41090   1.44069   1.47394
 Alpha virt. eigenvalues --    1.47433   1.50396   1.51337   1.51875   1.76267
 Alpha virt. eigenvalues --    1.76472   1.77118   1.77440   1.84642   1.86126
 Alpha virt. eigenvalues --    1.86306   1.91598   1.92658   1.93298   1.94560
 Alpha virt. eigenvalues --    1.96346   1.98266   1.98401   2.00007   2.03719
 Alpha virt. eigenvalues --    2.04934   2.07425   2.11565   2.12084   2.14877
 Alpha virt. eigenvalues --    2.17238   2.19754   2.19777   2.22441   2.23392
 Alpha virt. eigenvalues --    2.24409   2.29378   2.34645   2.34812   2.41354
 Alpha virt. eigenvalues --    2.41916   2.47106   2.47308   2.47710   2.48471
 Alpha virt. eigenvalues --    2.51056   2.51308   2.52681   2.54044   2.54711
 Alpha virt. eigenvalues --    2.55144   2.59845   2.61421   2.64002   2.66259
 Alpha virt. eigenvalues --    2.66378   2.67058   2.67100   2.70155   2.70556
 Alpha virt. eigenvalues --    2.71365   2.74142   2.79087   2.83341   2.84855
 Alpha virt. eigenvalues --    2.89385   2.90885   2.91925   2.96048   2.96886
 Alpha virt. eigenvalues --    2.99421   2.99900   3.27910   3.28092   3.35799
 Alpha virt. eigenvalues --    3.37780   3.40701   3.44548   3.50810   3.56576
 Alpha virt. eigenvalues --    3.61199   3.65295   3.69930   3.71685   4.13670
 Alpha virt. eigenvalues --    4.14017   4.15006   4.17564   4.23720   4.29354
 Alpha virt. eigenvalues --    4.40270   4.52778   4.64732   4.73255
          Condensed to atoms (all electrons):
               1          2          3          4          5          6
     1  C    4.965142   0.618881  -0.031410   0.002694  -0.000277   0.000005
     2  C    0.618881   4.740144   0.420631  -0.019963   0.004048  -0.000268
     3  C   -0.031410   0.420631   4.861032   0.578224  -0.018249   0.002487
     4  C    0.002694  -0.019963   0.578224   4.869403   0.391416  -0.016355
     5  C   -0.000277   0.004048  -0.018249   0.391416   4.887308   0.563437
     6  C    0.000005  -0.000268   0.002487  -0.016355   0.563437   4.887250
     7  C   -0.000000   0.000002  -0.000255   0.003625  -0.016381   0.391418
     8  C   -0.000000  -0.000000   0.000004  -0.000255   0.002487  -0.018227
     9  C    0.000000   0.000000  -0.000000   0.000002  -0.000269   0.004047
    10  C    0.000000   0.000000  -0.000000  -0.000000   0.000005  -0.000277
    11  H    0.382775  -0.035924  -0.012731   0.000562  -0.000000  -0.000000
    12  H   -0.050956   0.382001  -0.047470  -0.005752   0.000269  -0.000005
    13  H   -0.005158  -0.046673   0.379531  -0.051037  -0.009550   0.000549
    14  H    0.000487  -0.009056  -0.053550   0.381440  -0.048021  -0.005243
    15  H   -0.000003   0.000238  -0.005222  -0.048010   0.381210  -0.052847
    16  H    0.000000  -0.000004   0.000533  -0.009210  -0.052857   0.381218
    17  H    0.000000  -0.000000  -0.000004   0.000250  -0.005241  -0.048011
    18  H    0.000000   0.000000  -0.000000  -0.000004   0.000549  -0.009554
    19  H   -0.000000  -0.000000   0.000000  -0.000000  -0.000005   0.000269
    20  H    0.000000  -0.000000   0.000000   0.000000  -0.000000  -0.000000
    21  H   -0.000000   0.000000  -0.000000   0.000000  -0.000000   0.000003
    22  H    0.369518  -0.020434   0.004035  -0.000224   0.000003  -0.000000
               7          8          9         10         11         12
     1  C   -0.000000  -0.000000   0.000000   0.000000   0.382775  -0.050956
     2  C    0.000002  -0.000000   0.000000   0.000000  -0.035924   0.382001
     3  C   -0.000255   0.000004  -0.000000  -0.000000  -0.012731  -0.047470
     4  C    0.003625  -0.000255   0.000002  -0.000000   0.000562  -0.005752
     5  C   -0.016381   0.002487  -0.000269   0.000005  -0.000000   0.000269
     6  C    0.391418  -0.018227   0.004047  -0.000277  -0.000000  -0.000005
     7  C    4.869444   0.578222  -0.019981   0.002696   0.000000  -0.000000
     8  C    0.578222   4.860996   0.420631  -0.031402   0.000000   0.000000
     9  C   -0.019981   0.420631   4.740167   0.618878  -0.000000  -0.000000
    10  C    0.002696  -0.031402   0.618878   4.965126   0.000000  -0.000000
    11  H    0.000000   0.000000  -0.000000   0.000000   0.601384   0.005977
    12  H   -0.000000   0.000000  -0.000000  -0.000000   0.005977   0.631524
    13  H   -0.000004  -0.000000   0.000000   0.000000   0.004582   0.004335
    14  H    0.000251  -0.000004  -0.000000   0.000000   0.000014   0.004185
    15  H   -0.009205   0.000533  -0.000004   0.000000   0.000001   0.000005
    16  H   -0.048021  -0.005225   0.000239  -0.000003  -0.000000   0.000001
    17  H    0.381434  -0.053542  -0.009051   0.000486  -0.000000  -0.000000
    18  H   -0.051043   0.379536  -0.046679  -0.005160   0.000000  -0.000000
    19  H   -0.005751  -0.047466   0.382000  -0.050955   0.000000   0.000000
    20  H    0.000562  -0.012733  -0.035926   0.382775  -0.000000   0.000000
    21  H   -0.000224   0.004034  -0.020436   0.369520  -0.000000   0.000000
    22  H    0.000000  -0.000000   0.000000  -0.000000  -0.042363  -0.008095
              13         14         15         16         17         18
     1  C   -0.005158   0.000487  -0.000003   0.000000   0.000000   0.000000
     2  C   -0.046673  -0.009056   0.000238  -0.000004  -0.000000   0.000000
     3  C    0.379531  -0.053550  -0.005222   0.000533  -0.000004  -0.000000
     4  C   -0.051037   0.381440  -0.048010  -0.009210   0.000250  -0.000004
     5  C   -0.009550  -0.048021   0.381210  -0.052857  -0.005241   0.000549
     6  C    0.000549  -0.005243  -0.052847   0.381218  -0.048011  -0.009554
     7  C   -0.000004   0.000251  -0.009205  -0.048021   0.381434  -0.051043
     8  C   -0.000000  -0.000004   0.000533  -0.005225  -0.053542   0.379536
     9  C    0.000000  -0.000000  -0.000004   0.000239  -0.009051  -0.046679
    10  C    0.000000   0.000000   0.000000  -0.000003   0.000486  -0.005160
    11  H    0.004582   0.000014   0.000001  -0.000000  -0.000000   0.000000
    12  H    0.004335   0.004185   0.000005   0.000001  -0.000000  -0.000000
    13  H    0.631399   0.006054   0.004050   0.000014   0.000001  -0.000000
    14  H    0.006054   0.633767   0.004266   0.004061   0.000005   0.000001
    15  H    0.004050   0.004266   0.633853   0.006053   0.004058   0.000014
    16  H    0.000014   0.004061   0.006053   0.633874   0.004267   0.004053
    17  H    0.000001   0.000005   0.004058   0.004267   0.633745   0.006053
    18  H   -0.000000   0.000001   0.000014   0.004053   0.006053   0.631408
    19  H   -0.000000  -0.000000   0.000001   0.000005   0.004183   0.004336
    20  H    0.000000  -0.000000  -0.000000   0.000001   0.000014   0.004584
    21  H   -0.000000   0.000000  -0.000000   0.000000  -0.000008   0.000025
    22  H    0.000025  -0.000008   0.000000  -0.000000   0.000000  -0.000000
              19         20         21         22
     1  C   -0.000000   0.000000  -0.000000   0.369518
     2  C   -0.000000  -0.000000   0.000000  -0.020434
     3  C    0.000000   0.000000  -0.000000   0.004035
     4  C   -0.000000   0.000000   0.000000  -0.000224
     5  C   -0.000005  -0.000000  -0.000000   0.000003
     6  C    0.000269  -0.000000   0.000003  -0.000000
     7  C   -0.005751   0.000562  -0.000224   0.000000
     8  C   -0.047466  -0.012733   0.004034  -0.000000
     9  C    0.382000  -0.035926  -0.020436   0.000000
    10  C   -0.050955   0.382775   0.369520  -0.000000
    11  H    0.000000  -0.000000  -0.000000  -0.042363
    12  H    0.000000   0.000000   0.000000  -0.008095
    13  H   -0.000000   0.000000  -0.000000   0.000025
    14  H   -0.000000  -0.000000   0.000000  -0.000008
    15  H    0.000001  -0.000000  -0.000000   0.000000
    16  H    0.000005   0.000001   0.000000  -0.000000
    17  H    0.004183   0.000014  -0.000008   0.000000
    18  H    0.004336   0.004584   0.000025  -0.000000
    19  H    0.631512   0.005976  -0.008093   0.000000
    20  H    0.005976   0.601380  -0.042362  -0.000000
    21  H   -0.008093  -0.042362   0.601902   0.000000
    22  H    0.000000  -0.000000   0.000000   0.601910
 Mulliken charges:
               1
     1  C   -0.251699
     2  C   -0.033623
     3  C   -0.077585
     4  C   -0.076806
     5  C   -0.079882
     6  C   -0.079895
     7  C   -0.076789
     8  C   -0.077589
     9  C   -0.033617
    10  C   -0.251690
    11  H    0.095723
    12  H    0.083980
    13  H    0.081881
    14  H    0.081352
    15  H    0.081008
    16  H    0.081002
    17  H    0.081361
    18  H    0.081881
    19  H    0.083987
    20  H    0.095728
    21  H    0.095639
    22  H    0.095633
 Sum of Mulliken charges =  -0.00000
 Mulliken charges with hydrogens summed into heavy atoms:
               1
     1  C   -0.060343
     2  C    0.050357
     3  C    0.004296
     4  C    0.004546
     5  C    0.001126
     6  C    0.001107
     7  C    0.004571
     8  C    0.004292
     9  C    0.050369
    10  C   -0.060323
 Electronic spatial extent (au):  <R**2>=           3615.2499
 Charge=             -0.0000 electrons
 Dipole moment (field-independent basis, Debye):
    X=             -0.0008    Y=              0.0001    Z=              0.0018  Tot=              0.0019
 Quadrupole moment (field-independent basis, Debye-Ang):
   XX=            -57.6771   YY=            -53.4281   ZZ=            -66.5009
   XY=             -0.6584   XZ=             -0.0000   YZ=              0.0001
 Traceless Quadrupole moment (field-independent basis, Debye-Ang):
   XX=              1.5249   YY=              5.7740   ZZ=             -7.2988
   XY=             -0.6584   XZ=             -0.0000   YZ=              0.0001
 Octapole moment (field-independent basis, Debye-Ang**2):
  XXX=             -0.0259  YYY=              0.0018  ZZZ=             -0.0040  XYY=              0.0010
  XXY=              0.0041  XXZ=              0.1631  XZZ=             -0.0006  YZZ=              0.0002
  YYZ=             -0.0005  XYZ=              0.0696
 Hexadecapole moment (field-independent basis, Debye-Ang**3):
 XXXX=          -4529.6684 YYYY=           -168.3630 ZZZZ=            -68.9272 XXXY=            -38.0416
 XXXZ=             -0.0000 YYYX=              0.5209 YYYZ=              0.0001 ZZZX=             -0.0000
 ZZZY=              0.0000 XXYY=           -750.7022 XXZZ=           -901.9336 YYZZ=            -44.5125
 XXYZ=              0.0006 YYXZ=             -0.0000 ZZXY=             -0.2262
 N-N= 4.123473650233D+02 E-N=-1.722457641052D+03  KE= 3.843707161930D+02
 Calling FoFJK, ICntrl=      2127 FMM=F ISym2X=0 I1Cent= 0 IOpClX= 0 NMat=1 NMatS=1 NMatT=0.
 ***** Axes restored to original set *****
 -------------------------------------------------------------------
 Center     Atomic                   Forces (Hartrees/Bohr)
 Number     Number              X              Y              Z
 -------------------------------------------------------------------
      1        6          -0.008635061    0.003191080   -0.000053982
      2        6           0.021064105    0.000805152   -0.013023814
      3        6          -0.029633405    0.004202429    0.010160692
      4        6           0.033111348   -0.005373734   -0.010319917
      5        6          -0.033855278    0.006264764    0.009399763
      6        6           0.033855898   -0.006273102   -0.009398403
      7        6          -0.033101425    0.005397776    0.010327283
      8        6           0.029628255   -0.004227475   -0.010160934
      9        6          -0.021072128   -0.000813622    0.013005943
     10        6           0.008621058   -0.003216183    0.000041560
     11        1          -0.002086522    0.001140962   -0.000566356
     12        1           0.003940166   -0.002892343    0.002230231
     13        1          -0.002902410    0.001655923   -0.000890864
     14        1           0.002663761   -0.001570405    0.000917530
     15        1          -0.002679766    0.001574882   -0.000883273
     16        1           0.002682086   -0.001563914    0.000892670
     17        1          -0.002657251    0.001585017   -0.000906573
     18        1           0.002901471   -0.001651374    0.000894199
     19        1          -0.003925179    0.002921311   -0.002214640
     20        1           0.002088129   -0.001137687    0.000565133
     21        1          -0.000009310   -0.002466387    0.003732082
     22        1           0.000001459    0.002446930   -0.003748331
 -------------------------------------------------------------------
 Cartesian Forces:  Max     0.033855898 RMS     0.011402706

 GradGradGradGradGradGradGradGradGradGradGradGradGradGradGradGradGradGrad
 Berny optimization.
 FormGI is forming the generalized inverse of G from B-inverse, IUseBI=4.
 Internal  Forces:  Max     0.019785621 RMS     0.007179171
 Search for a local minimum.
 Step number   1 out of a maximum of   97
 All quantities printed in internal units (Hartrees-Bohrs-Radians)
 Mixed Optimization -- RFO/linear search
 Second derivative matrix not updated -- first step.
 ITU=  0
     Eigenvalues ---    0.01060   0.01060   0.01066   0.01066   0.01978
     Eigenvalues ---    0.01978   0.01978   0.01978   0.01982   0.01982
     Eigenvalues ---    0.01998   0.01999   0.02887   0.02888   0.02888
     Eigenvalues ---    0.02948   0.02948   0.02949   0.02949   0.16000
     Eigenvalues ---    0.16000   0.16000   0.16000   0.16000   0.16000
     Eigenvalues ---    0.16000   0.16000   0.16000   0.16000   0.16000
     Eigenvalues ---    0.16000   0.22000   0.22000   0.22000   0.22000
     Eigenvalues ---    0.22000   0.22000   0.22000   0.22000   0.34823
     Eigenvalues ---    0.34824   0.34880   0.34882   0.35080   0.35080
     Eigenvalues ---    0.35081   0.35081   0.35083   0.35083   0.35192
     Eigenvalues ---    0.35192   0.35272   0.35273   0.35371   0.35372
     Eigenvalues ---    0.57290   0.57301   0.57303   0.58338   0.58340
 RFO step:  Lambda=-1.46673438D-02 EMin= 1.05966506D-02
 Linear search not attempted -- first point.
 Iteration  1 RMS(Cart)=  0.05601383 RMS(Int)=  0.00047539
 Iteration  2 RMS(Cart)=  0.00123788 RMS(Int)=  0.00000229
 Iteration  3 RMS(Cart)=  0.00000013 RMS(Int)=  0.00000229
 Variable       Old X    -DE/DX   Delta X   Delta X   Delta X     New X
                                 (Linear)    (Quad)   (Total)
    R1        2.52278   0.01174   0.00000   0.01963   0.01963   2.54242
    R2        2.05234  -0.00019   0.00000  -0.00051  -0.00051   2.05184
    R3        2.05076   0.00017   0.00000   0.00046   0.00046   2.05122
    R4        2.79169  -0.01402   0.00000  -0.03857  -0.03857   2.75313
    R5        2.05364   0.00062   0.00000   0.00170   0.00170   2.05534
    R6        2.53141   0.01832   0.00000   0.03118   0.03118   2.56259
    R7        2.05545  -0.00025   0.00000  -0.00067  -0.00067   2.05478
    R8        2.79263  -0.01742   0.00000  -0.04799  -0.04799   2.74464
    R9        2.05544  -0.00013   0.00000  -0.00037  -0.00037   2.05507
   R10        2.53152   0.01979   0.00000   0.03367   0.03367   2.56519
   R11        2.05541  -0.00017   0.00000  -0.00046  -0.00046   2.05495
   R12        2.79262  -0.01741   0.00000  -0.04799  -0.04799   2.74463
   R13        2.05541  -0.00016   0.00000  -0.00045  -0.00045   2.05496
   R14        2.53142   0.01832   0.00000   0.03117   0.03117   2.56259
   R15        2.05544  -0.00014   0.00000  -0.00037  -0.00037   2.05507
   R16        2.79167  -0.01401   0.00000  -0.03855  -0.03855   2.75312
   R17        2.05545  -0.00025   0.00000  -0.00067  -0.00067   2.05478
   R18        2.52280   0.01173   0.00000   0.01962   0.01962   2.54242
   R19        2.05364   0.00063   0.00000   0.00171   0.00171   2.05534
   R20        2.05236  -0.00019   0.00000  -0.00052  -0.00052   2.05184
   R21        2.05076   0.00017   0.00000   0.00047   0.00047   2.05122
    A1        2.11474   0.00028   0.00000   0.00159   0.00159   2.11633
    A2        2.09383   0.00445   0.00000   0.02547   0.02547   2.11929
    A3        2.07461  -0.00473   0.00000  -0.02705  -0.02705   2.04756
    A4        2.11400   0.01179   0.00000   0.05022   0.05022   2.16422
    A5        2.07621  -0.00041   0.00000   0.00626   0.00626   2.08247
    A6        2.09297  -0.01137   0.00000  -0.05648  -0.05648   2.03649
    A7        2.11039   0.01218   0.00000   0.05188   0.05188   2.16227
    A8        2.08150  -0.00963   0.00000  -0.04624  -0.04624   2.03526
    A9        2.09130  -0.00254   0.00000  -0.00565  -0.00565   2.08565
   A10        2.11094   0.01260   0.00000   0.05370   0.05370   2.16465
   A11        2.09038  -0.00299   0.00000  -0.00789  -0.00789   2.08249
   A12        2.08186  -0.00961   0.00000  -0.04581  -0.04581   2.03604
   A13        2.11072   0.01246   0.00000   0.05308   0.05308   2.16379
   A14        2.08183  -0.00954   0.00000  -0.04552  -0.04552   2.03631
   A15        2.09064  -0.00291   0.00000  -0.00755  -0.00755   2.08309
   A16        2.11094   0.01242   0.00000   0.05294   0.05294   2.16388
   A17        2.09054  -0.00290   0.00000  -0.00749  -0.00749   2.08306
   A18        2.08170  -0.00953   0.00000  -0.04545  -0.04545   2.03625
   A19        2.11075   0.01263   0.00000   0.05382   0.05382   2.16457
   A20        2.08196  -0.00963   0.00000  -0.04586  -0.04586   2.03610
   A21        2.09047  -0.00300   0.00000  -0.00796  -0.00796   2.08251
   A22        2.11053   0.01215   0.00000   0.05179   0.05179   2.16232
   A23        2.09124  -0.00253   0.00000  -0.00561  -0.00561   2.08563
   A24        2.08141  -0.00962   0.00000  -0.04618  -0.04618   2.03523
   A25        2.11392   0.01180   0.00000   0.05026   0.05026   2.16419
   A26        2.09301  -0.01137   0.00000  -0.05649  -0.05649   2.03652
   A27        2.07625  -0.00042   0.00000   0.00623   0.00623   2.08248
   A28        2.11473   0.00028   0.00000   0.00159   0.00159   2.11632
   A29        2.09386   0.00444   0.00000   0.02545   0.02545   2.11931
   A30        2.07459  -0.00472   0.00000  -0.02704  -0.02704   2.04755
    D1       -0.00005  -0.00000   0.00000  -0.00005  -0.00005  -0.00010
    D2       -3.14134  -0.00001   0.00000  -0.00025  -0.00025  -3.14159
    D3        3.14135   0.00000   0.00000   0.00013   0.00013   3.14148
    D4        0.00006  -0.00000   0.00000  -0.00007  -0.00007  -0.00000
    D5       -3.14020  -0.00002   0.00000  -0.00058  -0.00058  -3.14078
    D6        0.00080  -0.00000   0.00000  -0.00017  -0.00017   0.00064
    D7        0.00108  -0.00001   0.00000  -0.00037  -0.00037   0.00071
    D8       -3.14110   0.00001   0.00000   0.00004   0.00004  -3.14106
    D9        3.14076   0.00001   0.00000   0.00041   0.00042   3.14118
   D10       -0.00007  -0.00000   0.00000  -0.00009  -0.00009  -0.00017
   D11       -0.00024  -0.00000   0.00000   0.00001   0.00001  -0.00023
   D12       -3.14108  -0.00002   0.00000  -0.00050  -0.00050  -3.14158
   D13       -3.13900  -0.00004   0.00000  -0.00112  -0.00111  -3.14012
   D14        0.00169  -0.00001   0.00000  -0.00049  -0.00049   0.00120
   D15        0.00183  -0.00002   0.00000  -0.00060  -0.00060   0.00123
   D16       -3.14066   0.00001   0.00000   0.00003   0.00003  -3.14063
   D17        3.14045   0.00002   0.00000   0.00058   0.00059   3.14104
   D18       -0.00024  -0.00000   0.00000  -0.00003  -0.00003  -0.00027
   D19       -0.00024  -0.00000   0.00000  -0.00003  -0.00003  -0.00027
   D20       -3.14093  -0.00002   0.00000  -0.00064  -0.00065  -3.14158
   D21       -3.13900  -0.00004   0.00000  -0.00112  -0.00111  -3.14012
   D22        0.00183  -0.00002   0.00000  -0.00060  -0.00060   0.00123
   D23        0.00169  -0.00001   0.00000  -0.00049  -0.00049   0.00120
   D24       -3.14066   0.00001   0.00000   0.00003   0.00003  -3.14063
   D25        3.14076   0.00001   0.00000   0.00041   0.00042   3.14118
   D26       -0.00024  -0.00000   0.00000   0.00001   0.00001  -0.00023
   D27       -0.00007  -0.00000   0.00000  -0.00009  -0.00009  -0.00017
   D28       -3.14108  -0.00002   0.00000  -0.00050  -0.00050  -3.14158
   D29       -3.14020  -0.00002   0.00000  -0.00058  -0.00058  -3.14078
   D30        0.00108  -0.00001   0.00000  -0.00037  -0.00037   0.00071
   D31        0.00080  -0.00000   0.00000  -0.00017  -0.00017   0.00064
   D32       -3.14110   0.00001   0.00000   0.00004   0.00004  -3.14106
   D33       -0.00005  -0.00000   0.00000  -0.00005  -0.00005  -0.00010
   D34        3.14135   0.00000   0.00000   0.00013   0.00013   3.14148
   D35       -3.14134  -0.00001   0.00000  -0.00025  -0.00025  -3.14159
   D36        0.00006  -0.00000   0.00000  -0.00007  -0.00007  -0.00000
         Item               Value     Threshold  Converged?
 Maximum Force            0.019786     0.000450     NO 
 RMS     Force            0.007179     0.000300     NO 
 Maximum Displacement     0.163909     0.001800     NO 
 RMS     Displacement     0.055043     0.001200     NO 
 Predicted change in Energy=-7.739970D-03
 GradGradGradGradGradGradGradGradGradGradGradGradGradGradGradGradGradGrad

                          Input orientation:                          
 ---------------------------------------------------------------------
 Center     Atomic      Atomic             Coordinates (Angstroms)
 Number     Number       Type             X           Y           Z
 ---------------------------------------------------------------------
      1          6           0       16.902744   -6.426211   -0.985961
      2          6           0       17.535861   -7.230029   -0.112398
      3          6           0       18.924367   -7.649225   -0.249716
      4          6           0       19.560033   -8.460299    0.631755
      5          6           0       20.943846   -8.880424    0.497522
      6          6           0       21.578706   -9.693715    1.379657
      7          6           0       22.962312  -10.114434    1.245178
      8          6           0       23.596824  -10.928171    2.125026
      9          6           0       24.984814  -11.348859    1.987095
     10          6           0       25.616154  -12.156776    2.858160
     11          1           0       17.410075   -6.037618   -1.863765
     12          1           0       16.997240   -7.601331    0.756501
     13          1           0       19.461897   -7.276952   -1.118499
     14          1           0       19.019612   -8.830938    1.499639
     15          1           0       21.484741   -8.509200   -0.369737
     16          1           0       21.037782  -10.064930    2.246904
     17          1           0       23.503406   -9.742372    0.378325
     18          1           0       23.058572  -11.301871    2.992750
     19          1           0       25.524513  -10.975338    1.119818
     20          1           0       25.107696  -12.547669    3.734290
     21          1           0       26.652941  -12.444188    2.714305
     22          1           0       15.865579   -6.139956   -0.842525
 ---------------------------------------------------------------------
                    Distance matrix (angstroms):
                    1          2          3          4          5
     1  C    0.000000
     2  C    1.345389   0.000000
     3  C    2.474829   1.456891   0.000000
     4  C    3.716948   2.482862   1.356062   0.000000
     5  C    4.955238   3.835384   2.480425   1.452398   0.000000
     6  C    6.175544   4.963927   3.725628   2.481070   1.357443
     7  C    7.436352   6.293582   4.961548   3.832486   2.481124
     8  C    8.646189   7.444300   6.182454   4.961445   3.725632
     9  C    9.919243   8.766958   7.444436   6.293566   4.964013
    10  C   11.114862   9.919082   8.646208   7.436224   6.175561
    11  H    1.085785   2.122487   2.737794   4.088927   5.113195
    12  H    2.103808   1.087641   2.174531   2.705789   4.156783
    13  H    2.700110   2.173490   1.087341   2.115025   2.716398
    14  H    4.054880   2.713502   2.113234   1.087497   2.170106
    15  H    5.070825   4.158865   2.703604   2.170225   1.087434
    16  H    6.386723   5.085905   4.066358   2.714275   2.114762
    17  H    7.511786   6.493402   5.073785   4.154290   2.703425
    18  H    8.803205   7.531413   6.398989   5.088084   4.069599
    19  H    9.973151   8.908662   7.516686   6.491428   5.075276
    20  H   11.272722  10.020329   8.837455   7.557042   6.423628
    21  H   12.040529  10.876528   9.565978   8.397483   7.085782
    22  H    1.085461   2.123954   3.462008   4.605049   5.924076
                    6          7          8          9         10
     6  C    0.000000
     7  C    1.452396   0.000000
     8  C    2.480375   1.356063   0.000000
     9  C    3.835369   2.482894   1.456887   0.000000
    10  C    4.955162   3.716955   2.474803   1.345390   0.000000
    11  H    6.423731   7.557334   8.837637  10.020733  11.272995
    12  H    5.075059   6.491269   7.516331   8.908404   9.972699
    13  H    4.069693   5.088336   6.399177   7.531782   8.803486
    14  H    2.703283   4.154153   5.073496   6.493164   7.511401
    15  H    2.114777   2.714395   4.066468   5.086141   6.386917
    16  H    1.087436   2.170189   2.703467   4.158730   5.070596
    17  H    2.170139   1.087495   2.113246   2.713579   4.054951
    18  H    2.716292   2.115014   1.087342   2.173468   2.700038
    19  H    4.156858   2.705872   2.174546   1.087640   2.103812
    20  H    5.113035   4.088886   2.737743   2.122483   1.085786
    21  H    5.924040   4.605087   3.461994   2.123964   1.085461
    22  H    7.085697   8.397534   9.565851  10.876574  12.040386
                   11         12         13         14         15
    11  H    0.000000
    12  H    3.079192   0.000000
    13  H    2.510249   3.113741   0.000000
    14  H    4.658941   2.480761   3.076546   0.000000
    15  H    4.994371   4.714902   2.484145   3.110457   0.000000
    16  H    6.802728   4.961512   4.645662   2.480756   3.076830
    17  H    7.475350   6.859830   4.965135   4.710887   2.480991
    18  H    9.121602   7.445438   6.785161   4.964683   4.645673
    19  H    9.956252   9.177706   7.446034   6.859770   4.961891
    20  H   11.531364   9.955550   9.121681   7.474792   6.802799
    21  H   12.142217  10.978106   9.648928   8.532215   7.190670
    22  H    1.854419   2.444004   3.781855   4.761831   6.116520
                   16         17         18         19         20
    16  H    0.000000
    17  H    3.110455   0.000000
    18  H    2.483928   3.076545   0.000000
    19  H    4.714861   2.480905   3.113738   0.000000
    20  H    4.994047   4.658963   2.510141   3.079192   0.000000
    21  H    6.116317   4.761951   3.781787   2.444025   1.854416
    22  H    7.190388   8.532541   9.648515  10.978465  12.141777
                   21         22
    21  H    0.000000
    22  H   12.990825   0.000000
 Stoichiometry    C10H12
 Framework group  C1[X(C10H12)]
 Deg. of freedom    60
 Full point group                 C1      NOp   1
 Largest Abelian subgroup         C1      NOp   1
 Largest concise Abelian subgroup C1      NOp   1
                         Standard orientation:                         
 ---------------------------------------------------------------------
 Center     Atomic      Atomic             Coordinates (Angstroms)
 Number     Number       Type             X           Y           Z
 ---------------------------------------------------------------------
      1          6           0        5.553037    0.221572    0.003163
      2          6           0        4.364359   -0.408595    0.000608
      3          6           0        3.078829    0.276929   -0.000224
      4          6           0        1.881963   -0.360576   -0.001884
      5          6           0        0.598775    0.319784   -0.002215
      6          6           0       -0.598766   -0.319393   -0.002216
      7          6           0       -1.882009    0.360858   -0.001883
      8          6           0       -3.078775   -0.276838   -0.000224
      9          6           0       -4.364446    0.408413    0.000609
     10          6           0       -5.552969   -0.222049    0.003162
     11          1           0        5.616048    1.305526    0.004687
     12          1           0        4.338036   -1.495917   -0.000864
     13          1           0        3.106481    1.363918    0.000731
     14          1           0        1.857742   -1.447802   -0.002823
     15          1           0        0.622711    1.406955   -0.002210
     16          1           0       -0.622672   -1.406567   -0.002213
     17          1           0       -1.857939    1.448086   -0.002820
     18          1           0       -3.106230   -1.363833    0.000728
     19          1           0       -4.338385    1.495740   -0.000861
     20          1           0       -5.615702   -1.306020    0.004684
     21          1           0       -6.486996    0.330960    0.003790
     22          1           0        6.486918   -0.331683    0.003790
 ---------------------------------------------------------------------
 Rotational constants (GHZ):          15.4409439           0.2918171           0.2864046
 Standard basis: 6-31G(d,p) (6D, 7F)
 There are   210 symmetry adapted cartesian basis functions of A   symmetry.
 There are   210 symmetry adapted basis functions of A   symmetry.
   210 basis functions,   364 primitive gaussians,   210 cartesian basis functions
    36 alpha electrons       36 beta electrons
       nuclear repulsion energy       410.1677979689 Hartrees.
 NAtoms=   22 NActive=   22 NUniq=   22 SFac= 1.00D+00 NAtFMM=   60 NAOKFM=F Big=F
 Integral buffers will be    131072 words long.
 Raffenetti 2 integral format.
 Two-electron integral symmetry is turned on.
 One-electron integrals computed using PRISM.
 NBasis=   210 RedAO= T EigKep=  1.55D-03  NBF=   210
 NBsUse=   210 1.00D-06 EigRej= -1.00D+00 NBFU=   210
 Initial guess from the checkpoint file:  "./chk/5.chk"
 B after Tr=     0.000000   -0.000000    0.000000
         Rot=    1.000000    0.000002    0.000000    0.000868 Ang=   0.10 deg.
 ExpMin= 1.61D-01 ExpMax= 3.05D+03 ExpMxC= 4.57D+02 IAcc=3 IRadAn=         5 AccDes= 0.00D+00
 Harris functional with IExCor=  402 and IRadAn=       5 diagonalized for initial guess.
 HarFok:  IExCor=  402 AccDes= 0.00D+00 IRadAn=         5 IDoV= 1 UseB2=F ITyADJ=14
 ICtDFT=  3500011 ScaDFX=  1.000000  1.000000  1.000000  1.000000
 FoFCou: FMM=F IPFlag=           0 FMFlag=      100000 FMFlg1=           0
         NFxFlg=           0 DoJE=T BraDBF=F KetDBF=T FulRan=T
         wScrn=  0.000000 ICntrl=       500 IOpCl=  0 I1Cent=   200000004 NGrid=           0
         NMat0=    1 NMatS0=      1 NMatT0=    0 NMatD0=    1 NMtDS0=    0 NMtDT0=    0
 Petite list used in FoFCou.
 Requested convergence on RMS density matrix=1.00D-08 within 128 cycles.
 Requested convergence on MAX density matrix=1.00D-06.
 Requested convergence on             energy=1.00D-06.
 No special actions if energy rises.
 Integral accuracy reduced to 1.0D-05 until final iterations.
 Initial convergence to 1.0D-05 achieved.  Increase integral accuracy.
 SCF Done:  E(RB3LYP) =  -388.231670243     A.U. after   11 cycles
            NFock= 11  Conv=0.84D-08     -V/T= 2.0103
 Calling FoFJK, ICntrl=      2127 FMM=F ISym2X=0 I1Cent= 0 IOpClX= 0 NMat=1 NMatS=1 NMatT=0.
 ***** Axes restored to original set *****
 -------------------------------------------------------------------
 Center     Atomic                   Forces (Hartrees/Bohr)
 Number     Number              X              Y              Z
 -------------------------------------------------------------------
      1        6           0.000065435   -0.001971533    0.002987910
      2        6           0.005725158    0.000679907   -0.004243024
      3        6          -0.007808994    0.000140134    0.004171535
      4        6           0.010068791   -0.001107769   -0.003939901
      5        6          -0.010388032    0.001566107    0.003440564
      6        6           0.010391765   -0.001556604   -0.003431337
      7        6          -0.010066355    0.001112567    0.003944190
      8        6           0.007814120   -0.000126941   -0.004160345
      9        6          -0.005726628   -0.000685273    0.004238853
     10        6          -0.000055857    0.001992169   -0.002974041
     11        1          -0.000261394    0.000519926   -0.000648730
     12        1          -0.000365591   -0.000604409    0.001118979
     13        1           0.001262815    0.000267744   -0.001124072
     14        1          -0.001328439   -0.000246108    0.001100792
     15        1           0.001327893    0.000202994   -0.001069935
     16        1          -0.001334327   -0.000217517    0.001058773
     17        1           0.001322572    0.000232994   -0.001110772
     18        1          -0.001266435   -0.000275908    0.001117600
     19        1           0.000363781    0.000600669   -0.001122189
     20        1           0.000260018   -0.000523252    0.000646575
     21        1          -0.000541770   -0.000249755    0.000682244
     22        1           0.000541475    0.000249860   -0.000683670
 -------------------------------------------------------------------
 Cartesian Forces:  Max     0.010391765 RMS     0.003459810

 GradGradGradGradGradGradGradGradGradGradGradGradGradGradGradGradGradGrad
 Berny optimization.
 Using GEDIIS/GDIIS optimizer.
 FormGI is forming the generalized inverse of G from B-inverse, IUseBI=4.
 Internal  Forces:  Max     0.008242480 RMS     0.001717607
 Search for a local minimum.
 Step number   2 out of a maximum of   97
 All quantities printed in internal units (Hartrees-Bohrs-Radians)
 Mixed Optimization -- RFO/linear search
 Update second derivatives using D2CorX and points    1    2
 DE= -8.17D-03 DEPred=-7.74D-03 R= 1.06D+00
 TightC=F SS=  1.41D+00  RLast= 2.35D-01 DXNew= 5.0454D-01 7.0613D-01
 Trust test= 1.06D+00 RLast= 2.35D-01 DXMaxT set to 5.05D-01
 ITU=  1  0
 Use linear search instead of GDIIS.
     Eigenvalues ---    0.01060   0.01060   0.01066   0.01066   0.01996
     Eigenvalues ---    0.01996   0.01996   0.01997   0.02002   0.02002
     Eigenvalues ---    0.02030   0.02030   0.02887   0.02888   0.02888
     Eigenvalues ---    0.02948   0.02948   0.02949   0.02949   0.15716
     Eigenvalues ---    0.16000   0.16000   0.16000   0.16000   0.16000
     Eigenvalues ---    0.16000   0.16000   0.16000   0.16000   0.16000
     Eigenvalues ---    0.16605   0.20922   0.22000   0.22000   0.22000
     Eigenvalues ---    0.22000   0.22000   0.22000   0.22042   0.31601
     Eigenvalues ---    0.34824   0.34863   0.34881   0.35080   0.35080
     Eigenvalues ---    0.35081   0.35082   0.35083   0.35172   0.35192
     Eigenvalues ---    0.35254   0.35272   0.35334   0.35371   0.35430
     Eigenvalues ---    0.57282   0.57302   0.57819   0.58339   0.60931
 RFO step:  Lambda=-7.24593677D-04 EMin= 1.05966390D-02
 Quartic linear search produced a step of  0.13281.
 Iteration  1 RMS(Cart)=  0.01196434 RMS(Int)=  0.00002572
 Iteration  2 RMS(Cart)=  0.00006409 RMS(Int)=  0.00000016
 Iteration  3 RMS(Cart)=  0.00000000 RMS(Int)=  0.00000016
 Variable       Old X    -DE/DX   Delta X   Delta X   Delta X     New X
                                 (Linear)    (Quad)   (Total)
    R1        2.54242  -0.00196   0.00261  -0.00547  -0.00286   2.53956
    R2        2.05184   0.00059  -0.00007   0.00193   0.00186   2.05370
    R3        2.05122  -0.00054   0.00006  -0.00177  -0.00171   2.04951
    R4        2.75313  -0.00590  -0.00512  -0.01576  -0.02088   2.73225
    R5        2.05534   0.00128   0.00023   0.00397   0.00419   2.05954
    R6        2.56259  -0.00106   0.00414  -0.00476  -0.00062   2.56197
    R7        2.05478   0.00161  -0.00009   0.00526   0.00517   2.05995
    R8        2.74464  -0.00824  -0.00637  -0.02257  -0.02894   2.71569
    R9        2.05507   0.00162  -0.00005   0.00526   0.00521   2.06028
   R10        2.56519  -0.00036   0.00447  -0.00359   0.00089   2.56608
   R11        2.05495   0.00158  -0.00006   0.00514   0.00508   2.06003
   R12        2.74463  -0.00824  -0.00637  -0.02257  -0.02894   2.71569
   R13        2.05496   0.00158  -0.00006   0.00514   0.00508   2.06003
   R14        2.56259  -0.00106   0.00414  -0.00476  -0.00062   2.56197
   R15        2.05507   0.00162  -0.00005   0.00526   0.00521   2.06028
   R16        2.75312  -0.00590  -0.00512  -0.01575  -0.02087   2.73225
   R17        2.05478   0.00161  -0.00009   0.00526   0.00517   2.05995
   R18        2.54242  -0.00196   0.00261  -0.00547  -0.00286   2.53956
   R19        2.05534   0.00128   0.00023   0.00397   0.00419   2.05954
   R20        2.05184   0.00059  -0.00007   0.00193   0.00186   2.05370
   R21        2.05122  -0.00054   0.00006  -0.00177  -0.00171   2.04951
    A1        2.11633   0.00038   0.00021   0.00254   0.00275   2.11909
    A2        2.11929   0.00056   0.00338   0.00156   0.00494   2.12423
    A3        2.04756  -0.00094  -0.00359  -0.00410  -0.00769   2.03987
    A4        2.16422   0.00128   0.00667   0.00208   0.00875   2.17297
    A5        2.08247  -0.00030   0.00083  -0.00155  -0.00072   2.08175
    A6        2.03649  -0.00098  -0.00750  -0.00053  -0.00803   2.02846
    A7        2.16227   0.00086   0.00689  -0.00024   0.00665   2.16892
    A8        2.03526   0.00015  -0.00614   0.00613  -0.00001   2.03525
    A9        2.08565  -0.00102  -0.00075  -0.00589  -0.00664   2.07902
   A10        2.16465   0.00106   0.00713   0.00061   0.00774   2.17239
   A11        2.08249  -0.00118  -0.00105  -0.00667  -0.00772   2.07478
   A12        2.03604   0.00012  -0.00608   0.00606  -0.00003   2.03602
   A13        2.16379   0.00091   0.00705  -0.00009   0.00696   2.17075
   A14        2.03631   0.00023  -0.00605   0.00662   0.00058   2.03688
   A15        2.08309  -0.00114  -0.00100  -0.00653  -0.00754   2.07555
   A16        2.16388   0.00090   0.00703  -0.00014   0.00690   2.17077
   A17        2.08306  -0.00114  -0.00099  -0.00652  -0.00751   2.07554
   A18        2.03625   0.00023  -0.00604   0.00666   0.00062   2.03687
   A19        2.16457   0.00107   0.00715   0.00065   0.00780   2.17237
   A20        2.03610   0.00012  -0.00609   0.00602  -0.00007   2.03603
   A21        2.08251  -0.00119  -0.00106  -0.00668  -0.00773   2.07478
   A22        2.16232   0.00086   0.00688  -0.00027   0.00661   2.16893
   A23        2.08563  -0.00101  -0.00075  -0.00588  -0.00662   2.07901
   A24        2.03523   0.00016  -0.00613   0.00614   0.00001   2.03524
   A25        2.16419   0.00129   0.00668   0.00210   0.00877   2.17296
   A26        2.03652  -0.00099  -0.00750  -0.00054  -0.00805   2.02848
   A27        2.08248  -0.00030   0.00083  -0.00155  -0.00073   2.08175
   A28        2.11632   0.00038   0.00021   0.00255   0.00276   2.11908
   A29        2.11931   0.00055   0.00338   0.00155   0.00493   2.12423
   A30        2.04755  -0.00094  -0.00359  -0.00410  -0.00769   2.03987
    D1       -0.00010   0.00000  -0.00001   0.00006   0.00005  -0.00005
    D2       -3.14159  -0.00000  -0.00003   0.00001  -0.00003   3.14157
    D3        3.14148   0.00000   0.00002   0.00005   0.00006   3.14155
    D4       -0.00000  -0.00000  -0.00001  -0.00001  -0.00002  -0.00002
    D5       -3.14078  -0.00001  -0.00008  -0.00058  -0.00065  -3.14143
    D6        0.00064  -0.00000  -0.00002  -0.00045  -0.00048   0.00016
    D7        0.00071  -0.00001  -0.00005  -0.00052  -0.00057   0.00014
    D8       -3.14106  -0.00000   0.00001  -0.00040  -0.00040  -3.14146
    D9        3.14118   0.00001   0.00006   0.00024   0.00030   3.14147
   D10       -0.00017   0.00000  -0.00001   0.00007   0.00006  -0.00011
   D11       -0.00023   0.00000   0.00000   0.00011   0.00011  -0.00012
   D12       -3.14158  -0.00000  -0.00007  -0.00006  -0.00013   3.14148
   D13       -3.14012  -0.00002  -0.00015  -0.00117  -0.00132  -3.14144
   D14        0.00120  -0.00001  -0.00006  -0.00098  -0.00105   0.00015
   D15        0.00123  -0.00001  -0.00008  -0.00101  -0.00109   0.00015
   D16       -3.14063  -0.00001   0.00000  -0.00082  -0.00082  -3.14145
   D17        3.14104   0.00001   0.00008   0.00032   0.00040   3.14144
   D18       -0.00027   0.00000  -0.00000   0.00012   0.00012  -0.00015
   D19       -0.00027   0.00000  -0.00000   0.00012   0.00012  -0.00015
   D20       -3.14158  -0.00000  -0.00009  -0.00007  -0.00016   3.14144
   D21       -3.14012  -0.00002  -0.00015  -0.00117  -0.00132  -3.14144
   D22        0.00123  -0.00001  -0.00008  -0.00101  -0.00109   0.00015
   D23        0.00120  -0.00001  -0.00006  -0.00098  -0.00105   0.00015
   D24       -3.14063  -0.00001   0.00000  -0.00082  -0.00081  -3.14145
   D25        3.14118   0.00001   0.00006   0.00024   0.00030   3.14147
   D26       -0.00023   0.00000   0.00000   0.00011   0.00011  -0.00012
   D27       -0.00017   0.00000  -0.00001   0.00007   0.00006  -0.00011
   D28       -3.14158  -0.00000  -0.00007  -0.00006  -0.00013   3.14148
   D29       -3.14078  -0.00001  -0.00008  -0.00058  -0.00065  -3.14143
   D30        0.00071  -0.00001  -0.00005  -0.00052  -0.00057   0.00014
   D31        0.00064  -0.00000  -0.00002  -0.00045  -0.00048   0.00016
   D32       -3.14106  -0.00000   0.00001  -0.00040  -0.00040  -3.14146
   D33       -0.00010   0.00000  -0.00001   0.00006   0.00005  -0.00005
   D34        3.14148   0.00000   0.00002   0.00005   0.00006   3.14155
   D35       -3.14159  -0.00000  -0.00003   0.00001  -0.00003   3.14157
   D36       -0.00000  -0.00000  -0.00001  -0.00001  -0.00002  -0.00002
         Item               Value     Threshold  Converged?
 Maximum Force            0.008242     0.000450     NO 
 RMS     Force            0.001718     0.000300     NO 
 Maximum Displacement     0.042036     0.001800     NO 
 RMS     Displacement     0.012004     0.001200     NO 
 Predicted change in Energy=-4.750342D-04
 GradGradGradGradGradGradGradGradGradGradGradGradGradGradGradGradGradGrad

                          Input orientation:                          
 ---------------------------------------------------------------------
 Center     Atomic      Atomic             Coordinates (Angstroms)
 Number     Number       Type             X           Y           Z
 ---------------------------------------------------------------------
      1          6           0       16.912655   -6.431303   -0.979092
      2          6           0       17.552760   -7.235387   -0.113230
      3          6           0       18.930422   -7.652846   -0.248263
      4          6           0       19.571567   -8.464497    0.628193
      5          6           0       20.940448   -8.882173    0.498126
      6          6           0       21.580720   -9.695395    1.377129
      7          6           0       22.949545  -10.113232    1.246993
      8          6           0       23.590541  -10.925164    2.123298
      9          6           0       24.968060  -11.343041    1.988086
     10          6           0       25.607884  -12.147690    2.853630
     11          1           0       17.411573   -6.035860   -1.859874
     12          1           0       17.018670   -7.612179    0.758877
     13          1           0       19.470716   -7.279520   -1.118308
     14          1           0       19.027443   -8.835509    1.497062
     15          1           0       21.485319   -8.511562   -0.370280
     16          1           0       21.035884  -10.065887    2.245610
     17          1           0       23.493744   -9.742129    0.378211
     18          1           0       23.050225  -11.298406    2.993365
     19          1           0       25.502268  -10.966126    1.116105
     20          1           0       25.108853  -12.543236    3.734301
     21          1           0       26.644024  -12.432926    2.707626
     22          1           0       15.876392   -6.146441   -0.833241
 ---------------------------------------------------------------------
                    Distance matrix (angstroms):
                    1          2          3          4          5
     1  C    0.000000
     2  C    1.343876   0.000000
     3  C    2.469344   1.445842   0.000000
     4  C    3.713092   2.477096   1.355736   0.000000
     5  C    4.940855   3.816031   2.471547   1.437082   0.000000
     6  C    6.164162   4.949472   3.719944   2.472389   1.357912
     7  C    7.413237   6.265579   4.943949   3.809458   2.472403
     8  C    8.626342   7.421005   6.168393   4.943923   3.719945
     9  C    9.890341   8.733557   7.421042   6.265577   4.949496
    10  C   11.089357   9.890299   8.626347   7.413205   6.164168
    11  H    1.086771   2.123574   2.742050   4.093206   5.110247
    12  H    2.103863   1.089860   2.161199   2.694589   4.130523
    13  H    2.698616   2.165799   1.090077   2.112961   2.709514
    14  H    4.047699   2.707050   2.110513   1.090255   2.158620
    15  H    5.060374   4.142429   2.698106   2.159076   1.090122
    16  H    6.372591   5.070307   4.058958   2.706420   2.112815
    17  H    7.490966   6.466882   5.057814   4.132591   2.696892
    18  H    8.782873   7.508740   6.385220   5.072094   4.063934
    19  H    9.936595   8.867038   7.485218   6.455185   5.053213
    20  H   11.258306  10.003564   8.828915   7.546227   6.422757
    21  H   12.012947  10.845401   9.543904   8.372103   7.072519
    22  H    1.084556   2.124719   3.455222   4.600380   5.907744
                    6          7          8          9         10
     6  C    0.000000
     7  C    1.437082   0.000000
     8  C    2.471535   1.355736   0.000000
     9  C    3.816029   2.477106   1.445842   0.000000
    10  C    4.940836   3.713095   2.469338   1.343876   0.000000
    11  H    6.422785   7.546305   8.828964  10.003672  11.258380
    12  H    5.053150   6.455138   7.485119   8.866966   9.936472
    13  H    4.063960   5.072161   6.385271   7.508839   8.782949
    14  H    2.696852   4.132553   5.057736   6.466819   7.490863
    15  H    2.112818   2.706451   4.058986   5.070370   6.372643
    16  H    1.090123   2.159068   2.698071   4.142396   5.060314
    17  H    2.158630   1.090254   2.110514   2.707069   4.047717
    18  H    2.709485   2.112958   1.090077   2.165795   2.698598
    19  H    4.130549   2.694616   2.161207   1.089860   2.103863
    20  H    5.110204   4.093194   2.742035   2.123572   1.086771
    21  H    5.907736   4.600392   3.455220   2.124722   1.084556
    22  H    7.072494   8.372114   9.543869  10.845412  12.012908
                   11         12         13         14         15
    11  H    0.000000
    12  H    3.081722   0.000000
    13  H    2.517277   3.105965   0.000000
    14  H    4.660267   2.465081   3.075346   0.000000
    15  H    4.994337   4.694129   2.477114   3.103718   0.000000
    16  H    6.799393   4.936504   4.639993   2.471435   3.075841
    17  H    7.465806   6.827019   4.948612   4.692722   2.471499
    18  H    9.112778   7.413560   6.772753   4.948491   4.639994
    19  H    9.930928   9.129514   7.413723   6.827007   4.936609
    20  H   11.527743   9.930737   9.112799   7.465656   6.799410
    21  H   12.125290  10.940049   9.625575   8.509946   7.173761
    22  H    1.850131   2.447044   3.779458   4.752949   6.104769
                   16         17         18         19         20
    16  H    0.000000
    17  H    3.103719   0.000000
    18  H    2.477056   3.075344   0.000000
    19  H    4.694124   2.465122   3.105967   0.000000
    20  H    4.994250   4.660270   2.517248   3.081721   0.000000
    21  H    6.104717   4.752981   3.779441   2.447048   1.850131
    22  H    7.173684   8.510032   9.625463  10.940147  12.125171
                   21         22
    21  H    0.000000
    22  H   12.961464   0.000000
 Stoichiometry    C10H12
 Framework group  C1[X(C10H12)]
 Deg. of freedom    60
 Full point group                 C1      NOp   1
 Largest Abelian subgroup         C1      NOp   1
 Largest concise Abelian subgroup C1      NOp   1
                         Standard orientation:                         
 ---------------------------------------------------------------------
 Center     Atomic      Atomic             Coordinates (Angstroms)
 Number     Number       Type             X           Y           Z
 ---------------------------------------------------------------------
      1          6           0        5.540471    0.216123    0.000494
      2          6           0        4.348068   -0.403697    0.000144
      3          6           0        3.071848    0.275803   -0.000091
      4          6           0        1.871464   -0.354353   -0.000265
      5          6           0        0.600639    0.316621   -0.000356
      6          6           0       -0.600635   -0.316519   -0.000356
      7          6           0       -1.871476    0.354428   -0.000265
      8          6           0       -3.071834   -0.275779   -0.000091
      9          6           0       -4.348092    0.403651    0.000144
     10          6           0       -5.540454   -0.216249    0.000494
     11          1           0        5.615314    1.300314    0.000581
     12          1           0        4.313649   -1.493014    0.000045
     13          1           0        3.098882    1.365545   -0.000127
     14          1           0        1.849048   -1.444377   -0.000335
     15          1           0        0.622107    1.406532   -0.000428
     16          1           0       -0.622096   -1.406431   -0.000428
     17          1           0       -1.849101    1.444452   -0.000335
     18          1           0       -3.098815   -1.365522   -0.000127
     19          1           0       -4.313745    1.492970    0.000045
     20          1           0       -5.615221   -1.300445    0.000581
     21          1           0       -6.471843    0.339428    0.000702
     22          1           0        6.471821   -0.339620    0.000702
 ---------------------------------------------------------------------
 Rotational constants (GHZ):          15.6176205           0.2934558           0.2880435
 Standard basis: 6-31G(d,p) (6D, 7F)
 There are   210 symmetry adapted cartesian basis functions of A   symmetry.
 There are   210 symmetry adapted basis functions of A   symmetry.
   210 basis functions,   364 primitive gaussians,   210 cartesian basis functions
    36 alpha electrons       36 beta electrons
       nuclear repulsion energy       411.3111060329 Hartrees.
 NAtoms=   22 NActive=   22 NUniq=   22 SFac= 1.00D+00 NAtFMM=   60 NAOKFM=F Big=F
 Integral buffers will be    131072 words long.
 Raffenetti 2 integral format.
 Two-electron integral symmetry is turned on.
 One-electron integrals computed using PRISM.
 NBasis=   210 RedAO= T EigKep=  1.48D-03  NBF=   210
 NBsUse=   210 1.00D-06 EigRej= -1.00D+00 NBFU=   210
 Initial guess from the checkpoint file:  "./chk/5.chk"
 B after Tr=     0.000000   -0.000000   -0.000000
         Rot=    1.000000    0.000000    0.000000    0.000162 Ang=   0.02 deg.
 ExpMin= 1.61D-01 ExpMax= 3.05D+03 ExpMxC= 4.57D+02 IAcc=3 IRadAn=         5 AccDes= 0.00D+00
 Harris functional with IExCor=  402 and IRadAn=       5 diagonalized for initial guess.
 HarFok:  IExCor=  402 AccDes= 0.00D+00 IRadAn=         5 IDoV= 1 UseB2=F ITyADJ=14
 ICtDFT=  3500011 ScaDFX=  1.000000  1.000000  1.000000  1.000000
 FoFCou: FMM=F IPFlag=           0 FMFlag=      100000 FMFlg1=           0
         NFxFlg=           0 DoJE=T BraDBF=F KetDBF=T FulRan=T
         wScrn=  0.000000 ICntrl=       500 IOpCl=  0 I1Cent=   200000004 NGrid=           0
         NMat0=    1 NMatS0=      1 NMatT0=    0 NMatD0=    1 NMtDS0=    0 NMtDT0=    0
 Petite list used in FoFCou.
 Requested convergence on RMS density matrix=1.00D-08 within 128 cycles.
 Requested convergence on MAX density matrix=1.00D-06.
 Requested convergence on             energy=1.00D-06.
 No special actions if energy rises.
 Integral accuracy reduced to 1.0D-05 until final iterations.
 Initial convergence to 1.0D-05 achieved.  Increase integral accuracy.
 SCF Done:  E(RB3LYP) =  -388.232131059     A.U. after   11 cycles
            NFock= 11  Conv=0.49D-08     -V/T= 2.0100
 Calling FoFJK, ICntrl=      2127 FMM=F ISym2X=0 I1Cent= 0 IOpClX= 0 NMat=1 NMatS=1 NMatT=0.
 ***** Axes restored to original set *****
 -------------------------------------------------------------------
 Center     Atomic                   Forces (Hartrees/Bohr)
 Number     Number              X              Y              Z
 -------------------------------------------------------------------
      1        6          -0.000117310   -0.000091327    0.000207775
      2        6          -0.000086213   -0.000131779    0.000251438
      3        6          -0.000619429    0.000661309   -0.000652749
      4        6           0.000581937   -0.000595320    0.000590104
      5        6          -0.000825578    0.000788991   -0.000728690
      6        6           0.000828864   -0.000781184    0.000734583
      7        6          -0.000578633    0.000603036   -0.000583773
      8        6           0.000621569   -0.000655518    0.000656368
      9        6           0.000086970    0.000133744   -0.000249352
     10        6           0.000118601    0.000094021   -0.000206133
     11        1          -0.000050153    0.000063814   -0.000071007
     12        1          -0.000388474    0.000149332   -0.000013719
     13        1           0.000494331   -0.000212958    0.000038940
[...]
 03454,-0.00002459,-0.00001269,-0.00001779,0.00001903,0.00001056,0.0000
 0511,-0.00001927,-0.00001702,0.00000015,0.00000352,0.00432272,0.005248
 30,0.00636649,0.04141300,0.07349328,0.01210702,0.00801814,-0.01372795,
 0.10835132,0.08008367,-0.22413014,0.00115148,0.00249593,-0.00143085,-0
 .00147576,-0.00062817,0.00018373,-0.00006042,-0.00034833,0.00035784,0.
 00005893,0.00003386,-0.00010631,-0.00001130,-0.00003565,0.00007622,0.0
 0003811,0.00001835,-0.00005918,-0.00003888,-0.00001716,0.00004418,0.00
 004489,-0.00001071,-0.00001261,-0.00051479,0.00627778,0.00176066,-0.11
 919278,-0.09346167,0.23612622,0.00129383,-0.00142238,0.00059697,-0.012
 62446,-0.01071482,0.02501532,-0.12375411,-0.04117219,0.10993290,0.0102
 0653,0.00577284,-0.01171477,0.00046514,-0.00075845,-0.00247810,0.00015
 009,-0.00004747,-0.00005792,-0.00004600,0.00005135,0.00007837,0.000047
 50,-0.00003330,0.00004184,-0.00002603,-0.00001124,-0.00002262,0.000003
 48,-0.00000988,0.00000844,0.00009383,0.00075638,-0.00104328,-0.0043422
 8,0.00251277,0.00061982,0.12854743,-0.00024818,-0.00043326,-0.00149527
 ,0.00522458,0.00532421,-0.00652191,-0.04040713,-0.07688887,0.07995435,
 -0.01011635,-0.00251261,0.01703021,-0.00289791,-0.00334614,-0.00245933
 ,0.00023473,-0.00005904,-0.00016711,0.00005335,0.00016730,0.00007126,0
 .00001394,0.00001553,0.00001686,-0.00002882,-0.00005953,-0.00004094,-0
 .00000245,-0.00000694,-0.00000072,-0.00025529,0.00015554,0.00034090,0.
 00260787,0.00189496,0.00113531,0.04122726,0.07127338,-0.00118926,-0.00
 083852,0.00043333,0.00076769,0.00239330,-0.00111226,0.10876901,0.08038
 226,-0.22230413,0.01245648,0.00814309,-0.01439193,0.00077660,-0.003655
 98,-0.00090099,-0.00048723,-0.00000927,0.00020402,0.00007531,0.0000723
 9,0.00008153,-0.00003002,0.00004328,-0.00001731,0.00000413,-0.00005077
 ,-0.00002211,-0.00000286,0.00000344,-0.00001194,0.00049571,-0.00022496
 ,0.00035071,0.00047515,0.00118851,0.00152635,-0.12053474,-0.09318588,0
 .23435052,0.00009720,-0.00000590,0.00000800,0.00045457,-0.00070343,-0.
 00263679,0.01013882,0.00565051,-0.01152296,-0.12483450,-0.04102048,0.1
 0985283,-0.01293682,-0.01062409,0.02501672,0.00121783,-0.00179027,0.00
 103527,-0.00000183,0.00021675,-0.00045828,-0.00004874,0.00001538,-0.00
 000653,0.00007765,0.00001068,-0.00004769,-0.00006424,0.00001051,0.0000
 1142,-0.00010493,0.00005155,0.00017020,0.00003150,-0.00022391,0.000446
 56,-0.00022334,0.00390218,-0.00061944,0.13010728,0.00024230,0.00009809
 ,-0.00013954,-0.00294125,-0.00348143,-0.00244937,-0.01018499,-0.002615
 98,0.01713851,-0.04036976,-0.07687040,0.07867161,0.00515616,0.00535206
 ,-0.00662214,-0.00012128,-0.00067125,-0.00165000,-0.00004400,-0.000084
 93,-0.00019861,-0.00003299,-0.00004642,0.00006080,-0.00000341,0.000033
 01,-0.00001572,-0.00001782,-0.00001123,0.00000386,0.00004397,0.0003206
 8,0.00000416,0.00079791,0.00013445,-0.00031474,0.00391714,0.00411775,0
 .00566575,0.04107564,0.07136496,-0.00036958,-0.00000071,0.00030325,0.0
 0076746,-0.00370101,-0.00097206,0.01256671,0.00828142,-0.01472146,0.10
 886304,0.07903560,-0.22111962,0.00101101,0.00220404,-0.00102364,-0.001
 50368,-0.00071652,0.00013055,-0.00006161,-0.00034445,0.00032679,0.0000
 6705,0.00003374,-0.00010742,-0.00002626,-0.00002360,0.00007201,0.00005
 451,-0.00001198,-0.00002751,0.00018174,-0.00000008,0.00023805,-0.00110
 787,0.00025678,0.00044995,-0.00064219,0.00567411,0.00100988,-0.1207131
 9,-0.09198014,0.23344511,-0.00008187,0.00005456,-0.00005530,0.00001372
 ,0.00020555,-0.00045696,0.00121492,-0.00178005,0.00103830,-0.01285430,
 -0.01062275,0.02498702,-0.12524345,-0.04103394,0.11033630,0.01015439,0
 .00563711,-0.01152402,0.00045405,-0.00070087,-0.00251571,0.00013973,-0
 .00004241,-0.00005049,-0.00002935,0.00004812,0.00007982,0.00002539,-0.
 00002776,0.00003514,-0.00003378,0.00003613,-0.00003397,0.00028993,-0.0
 0000023,-0.00010598,0.00004047,0.00078453,-0.00107132,-0.00420684,0.00
 261297,0.00058562,0.13042936,-0.00005215,-0.00004343,0.00004602,-0.000
 03222,-0.00010087,-0.00020008,-0.00014585,-0.00064357,-0.00163223,0.00
 515510,0.00539689,-0.00663922,-0.04039710,-0.07655108,0.07883922,-0.01
 021462,-0.00256347,0.01704038,-0.00286264,-0.00331195,-0.00241217,0.00
 022228,-0.00004025,-0.00016334,0.00006876,0.00016881,0.00007631,-0.000
 00127,0.00000995,0.00000491,0.00001058,-0.00000839,0.00001256,-0.00000
 584,0.00000935,0.00014090,-0.00020806,0.00014747,0.00028579,0.00261692
 ,0.00210142,0.00134398,0.04112454,0.07096375,0.00010703,-0.00001367,-0
 .00007143,-0.00009526,-0.00033307,0.00031571,-0.00144773,-0.00071817,0
 .00013211,0.00098508,0.00218549,-0.00094773,0.10936742,0.07919542,-0.2
 2122481,0.01259040,0.00817431,-0.01459454,0.00077291,-0.00362126,-0.00
 087353,-0.00045315,-0.00001530,0.00021082,0.00004842,0.00008786,0.0000
 8352,-0.00000515,0.00001972,-0.00001441,0.00000489,-0.00000173,0.00000
 365,-0.00009745,0.00013776,-0.00005524,0.00043865,-0.00026938,0.000423
 28,0.00057962,0.00134619,0.00157498,-0.12120416,-0.09204138,0.23338872
 ,0.00002539,-0.00002776,0.00003514,-0.00002935,0.00004812,0.00007982,0
 .00013973,-0.00004241,-0.00005049,0.00045403,-0.00070084,-0.00251573,0
 .01015436,0.00563711,-0.01152403,-0.12524355,-0.04103405,0.11033626,-0
 .01285442,-0.01062273,0.02498704,0.00121492,-0.00178004,0.00103834,0.0
 0001373,0.00020554,-0.00045697,-0.00008187,0.00005456,-0.00005530,0.00
 000467,0.00000053,0.00000598,-0.00003417,0.00000999,0.00000975,-0.0001
 0591,0.00005591,0.00017255,0.00003510,-0.00020962,0.00043717,-0.000217
 33,0.00386003,-0.00065548,0.13042965,-0.00000128,0.00000996,0.00000490
 ,0.00006877,0.00016881,0.00007631,0.00022227,-0.00004025,-0.00016334,-
 0.00286266,-0.00331196,-0.00241214,-0.01021462,-0.00256342,0.01704033,
 -0.04039714,-0.07655112,0.07883916,0.00515503,0.00539689,-0.00663916,-
 0.00014581,-0.00064361,-0.00163221,-0.00003222,-0.00010087,-0.00020008
 ,-0.00005215,-0.00004343,0.00004602,0.00000119,0.00001531,0.00000162,0
 .00004036,-0.00000403,-0.00000058,0.00005654,0.00033326,0.00000092,0.0
 0078617,0.00014117,-0.00027934,0.00386005,0.00400731,0.00560280,0.0411
 2464,0.07096374,-0.00000516,0.00001972,-0.00001441,0.00004843,0.000087
 86,0.00008352,-0.00045315,-0.00001529,0.00021082,0.00077291,-0.0036212
 8,-0.00087354,0.01259040,0.00817434,-0.01459460,0.10936745,0.07919538,
 -0.22122452,0.00098502,0.00218549,-0.00094769,-0.00144774,-0.00071819,
 0.00013212,-0.00009526,-0.00033306,0.00031571,0.00010704,-0.00001367,-
 0.00007143,0.00000498,0.00000199,0.00001099,-0.00003645,0.00001641,0.0
 0000585,0.00017159,0.00000126,0.00025675,-0.00107766,0.00027762,0.0004
 2702,-0.00065547,0.00560281,0.00095289,-0.12120409,-0.09204137,0.23338
 843,-0.00006424,0.00001051,0.00001142,0.00007765,0.00001068,-0.0000476
 9,-0.00004874,0.00001538,-0.00000653,-0.00000183,0.00021675,-0.0004582
 8,0.00121785,-0.00179026,0.00103526,-0.01293687,-0.01062417,0.02501669
 ,-0.12483558,-0.04102104,0.10985325,0.01013886,0.00565050,-0.01152294,
 0.00045462,-0.00070341,-0.00263675,0.00009720,-0.00000590,0.00000800,0
 .00000023,0.00000363,-0.00000319,0.00000317,-0.00000470,0.00000827,-0.
 00003414,0.00004018,-0.00003846,0.00028587,-0.00000204,-0.00009475,0.0
 0003510,0.00078617,-0.00107767,-0.00420687,0.00261689,0.00057959,0.130
 10837,-0.00001782,-0.00001123,0.00000386,-0.00000341,0.00003300,-0.000
 01572,-0.00003299,-0.00004642,0.00006079,-0.00004400,-0.00008493,-0.00
 019861,-0.00012129,-0.00067125,-0.00164999,0.00515613,0.00535201,-0.00
 662201,-0.04037038,-0.07687053,0.07867176,-0.01018499,-0.00261592,0.01
 713831,-0.00294119,-0.00348147,-0.00244940,0.00024230,0.00009809,-0.00
 013953,0.00000259,0.00000224,0.00000182,-0.00000412,0.00000368,0.00000
 457,0.00001016,-0.00000759,0.00001558,-0.00000203,0.00001820,0.0001422
 2,-0.00020962,0.00014117,0.00027762,0.00261295,0.00210145,0.00134620,0
 .04107635,0.07136498,0.00005451,-0.00001198,-0.00002751,-0.00002626,-0
 .00002360,0.00007201,0.00006705,0.00003374,-0.00010742,-0.00006161,-0.
 00034445,0.00032678,-0.00150365,-0.00071652,0.00013055,0.00101092,0.00
 220395,-0.00102346,0.10886334,0.07903564,-0.22111858,0.01256688,0.0082
 8149,-0.01472153,0.00076750,-0.00370100,-0.00097204,-0.00036958,-0.000
 00071,0.00030324,-0.00000161,0.00000124,0.00000341,0.00000739,0.000004
 90,-0.00000641,0.00000721,-0.00000121,0.00000420,-0.00009474,0.0001422
 2,-0.00005243,0.00043718,-0.00027933,0.00042701,0.00058558,0.00134399,
 0.00157498,-0.12071355,-0.09198021,0.23344404,0.00000348,-0.00000989,0
 .00000844,-0.00002603,-0.00001124,-0.00002262,0.00004750,-0.00003330,0
 .00004184,-0.00004600,0.00005134,0.00007836,0.00015010,-0.00004748,-0.
 00005792,0.00046515,-0.00075838,-0.00247809,0.01020655,0.00577280,-0.0
 1171474,-0.12375516,-0.04117256,0.10993323,-0.01262466,-0.01071482,0.0
 2501537,0.00129384,-0.00142235,0.00059702,-0.00000038,-0.00000247,-0.0
 0000145,-0.00000162,0.00000180,0.00000057,0.00000577,0.00000079,0.0000
 0660,-0.00003414,0.00001016,0.00000721,-0.00010592,0.00005654,0.000171
 59,0.00004047,-0.00020806,0.00043864,-0.00022339,0.00391706,-0.0006422
 6,0.12854874,-0.00000245,-0.00000694,-0.00000072,-0.00002882,-0.000059
 53,-0.00004094,0.00001394,0.00001553,0.00001686,0.00005336,0.00016730,
 0.00007126,0.00023473,-0.00005905,-0.00016711,-0.00289791,-0.00334618,
 -0.00245934,-0.01011628,-0.00251252,0.01702997,-0.04040746,-0.07688855
 ,0.07995398,0.00522449,0.00532413,-0.00652168,-0.00024815,-0.00043329,
 -0.00149526,-0.00000219,-0.00000519,-0.00000563,0.00000408,0.00000237,
 0.00000066,0.00000079,0.00001788,0.00000237,0.00004018,-0.00000759,-0.
 00000121,0.00005591,0.00033326,0.00000127,0.00078452,0.00014747,-0.000
 26937,0.00390211,0.00411785,0.00567412,0.04122772,0.07127295,-0.000002
 86,0.00000344,-0.00001194,0.00000413,-0.00005077,-0.00002211,-0.000030
 02,0.00004328,-0.00001731,0.00007531,0.00007239,0.00008152,-0.00048723
 ,-0.00000927,0.00020403,0.00077663,-0.00365597,-0.00090099,0.01245668,
 0.00814318,-0.01439208,0.10876938,0.08038191,-0.22230332,0.00076754,0.
 00239318,-0.00111202,-0.00118926,-0.00083853,0.00043334,-0.00000188,-0
 .00000547,-0.00000032,-0.00000290,0.00000193,0.00000298,0.00000660,0.0
 0000237,0.00001243,-0.00003846,0.00001558,0.00000420,0.00017255,0.0000
 0091,0.00025675,-0.00107132,0.00028579,0.00042329,-0.00061951,0.005665
 75,0.00100982,-0.12053502,-0.09318554,0.23434967,-0.00003776,0.0000084
 3,0.00000618,0.00003713,0.00000680,-0.00003316,-0.00004356,-0.00001147
 ,0.00003624,0.00005594,0.00001239,-0.00004137,-0.00002921,0.00001345,-
 0.00001634,-0.00001601,0.00023264,-0.00046008,0.00126228,-0.00176598,0
 .00108714,-0.01315049,-0.01066185,0.02525807,-0.12287752,-0.04211548,0
 .10947082,0.01056305,0.00686300,-0.01341693,0.00000099,0.00000087,-0.0
 0000080,-0.00000249,-0.00000168,0.00000481,-0.00000162,0.00000408,-0.0
 0000290,0.00000317,-0.00000412,0.00000739,-0.00003417,0.00004036,-0.00
 003645,0.00028993,-0.00000584,-0.00009745,0.00003150,0.00079791,-0.001
 10788,-0.00434234,0.00260780,0.00047507,0.12775144,-0.00001702,0.00000
 015,0.00000353,0.00001056,0.00000511,-0.00001927,-0.00001269,-0.000017
 80,0.00001904,-0.00000738,0.00003454,-0.00002459,-0.00003602,-0.000049
 04,0.00006154,-0.00003008,-0.00006241,-0.00020139,-0.00008126,-0.00053
 506,-0.00157045,0.00518472,0.00528939,-0.00636721,-0.04138001,-0.07885
 936,0.07967180,-0.00991530,-0.00255274,0.01740232,0.00000114,0.0000011
 5,0.00000054,-0.00000168,0.,0.00000329,0.00000180,0.00000237,0.0000019
 3,-0.00000470,0.00000368,0.00000490,0.00000999,-0.00000403,0.00001641,
 -0.00000023,0.00000935,0.00013776,-0.00022391,0.00013445,0.00025677,0.
 00251270,0.00189502,0.00118853,0.04141352,0.07349253,0.00004489,-0.000
 01071,-0.00001261,-0.00003888,-0.00001716,0.00004418,0.00003811,0.0000
 1835,-0.00005918,-0.00001130,-0.00003565,0.00007622,0.00005893,0.00003
 386,-0.00010631,-0.00006042,-0.00034832,0.00035783,-0.00147572,-0.0006
 2819,0.00018375,0.00115127,0.00249578,-0.00143054,0.10835198,0.0800831
 1,-0.22412928,0.01210727,0.00801823,-0.01372819,-0.00000121,0.00000069
 ,0.00000155,0.00000481,0.00000329,-0.00000615,0.00000057,0.00000066,0.
 00000298,0.00000827,0.00000457,-0.00000641,0.00000975,-0.00000058,0.00
 000585,-0.00010598,0.00014090,-0.00005524,0.00044656,-0.00031473,0.000
 44994,0.00061973,0.00113534,0.00152634,-0.11919340,-0.09346109,0.23612
 541,0.00001013,-0.00000676,0.00000219,-0.00001485,0.00000994,0.0000078
 3,0.00002186,-0.00001417,0.00000455,-0.00004451,-0.00001257,-0.0000164
 6,0.00006537,-0.00003495,0.00003661,-0.00004577,0.00006636,0.00011114,
 0.00012022,-0.00003170,-0.00005288,0.00055649,-0.00120767,-0.00262953,
 0.01093241,0.00580821,-0.01230427,-0.11854127,-0.04170415,0.11110583,0
 .00000008,0.00000104,0.00000032,0.00000099,0.00000114,-0.00000121,-0.0
 0000038,-0.00000219,-0.00000188,0.00000023,0.00000259,-0.00000161,0.00
 000467,0.00000119,0.00000498,-0.00003378,0.00001058,0.00000489,-0.0001
 0493,0.00004397,0.00018173,0.00009383,-0.00025529,0.00049572,0.0001861
 2,0.00432261,-0.00051490,0.11497667,-0.00000308,-0.00000334,0.00000018
 ,0.00000519,0.00001908,0.00000792,0.00000154,-0.00001128,0.00000329,-0
 .00003720,-0.00006238,-0.00004879,0.00002090,0.00001190,0.00002464,0.0
 0005671,0.00024546,0.00010212,0.00024514,-0.00006184,-0.00013516,-0.00
 333625,-0.00410065,-0.00319852,-0.01005737,-0.00251476,0.01664779,-0.0
 3987575,-0.07831384,0.09074595,0.00000104,0.00000245,0.00000099,0.0000
 0087,0.00000115,0.00000069,-0.00000247,-0.00000519,-0.00000547,0.00000
 363,0.00000224,0.00000124,0.00000053,0.00001531,0.00000199,0.00003612,
 -0.00000839,-0.00000173,0.00005155,0.00032068,-0.00000008,0.00075638,0
 .00015554,-0.00022494,0.00448118,0.00524849,0.00627780,0.04349908,0.07
 406712,-0.00000342,0.00000224,-0.00000585,0.00001507,0.00000526,0.0000
 0976,-0.00001934,0.00001208,-0.00001610,0.00002100,-0.00006257,-0.0000
 2470,-0.00004835,0.00005587,-0.00002217,0.00012582,0.00009672,0.000115
 92,-0.00047403,0.00001967,0.00017464,0.00060857,-0.00438902,-0.0010933
 1,0.01183150,0.00777414,-0.01371288,0.10832437,0.09176860,-0.23351290,
 0.00000032,0.00000099,0.00000180,-0.00000080,0.00000054,0.00000155,-0.
 00000145,-0.00000563,-0.00000032,-0.00000319,0.00000182,0.00000341,0.0
 0000598,0.00000162,0.00001099,-0.00003397,0.00001256,0.00000365,0.0001
 7020,0.00000416,0.00023806,-0.00104330,0.00034088,0.00035071,-0.000756
 15,0.00636649,0.00176053,-0.11826077,-0.10376880,0.24585069,-0.0000345
 7,0.00001094,0.00000083,0.00003331,-0.00001502,-0.00003638,-0.00004650
 ,0.00000786,0.00001807,0.00007922,0.00008022,0.00001335,-0.00012634,0.
 00001197,0.00001234,-0.00003087,-0.00026934,-0.00040287,-0.00057246,0.
 00009115,0.00030384,0.00201536,0.00387407,-0.00046272,-0.00995280,0.00
 200919,0.00485535,-0.31844621,0.07674909,0.04382257,0.00000099,-0.0000
 0097,-0.00000080,-0.00000270,-0.00000165,0.00000500,0.00000214,0.00000
 583,0.00000353,-0.00000279,-0.00000275,0.00000605,-0.00000491,-0.00001
 803,-0.00001358,0.00001019,-0.00000467,0.00001509,0.00000897,0.0000751
 8,-0.00003421,0.00030209,-0.00019691,-0.00002466,0.00035632,-0.0017451
 0,-0.00144534,-0.00818457,0.00415323,-0.00045726,0.33459906,0.00002535
 ,-0.00000842,-0.00000643,-0.00004175,-0.00005389,-0.00000513,0.0000322
 0,0.00001114,-0.00002402,0.00005623,0.00017823,0.00018619,0.00007331,-
 0.00003592,-0.00009546,-0.00033161,-0.00112544,-0.00035965,0.00090574,
 0.00019766,-0.00047455,0.00274016,0.00571572,0.00760956,0.01934450,-0.
 00065513,-0.00344378,0.07436784,-0.05924219,0.00085152,-0.00000159,-0.
 00000169,-0.00000120,0.00000349,0.00000270,-0.00000340,0.00000556,0.00
 001568,0.00001001,0.00000447,0.00000254,-0.00000553,-0.00002020,-0.000
 05038,-0.00003110,0.00000787,0.00002275,-0.00000178,-0.00000975,0.0000
 9900,0.00008655,0.00006768,-0.00014616,-0.00023776,-0.00191953,-0.0040
 3849,-0.00339275,-0.01049565,0.00499393,0.00176357,-0.08482069,0.05411
 206,-0.00002109,0.00000162,0.00000599,0.00000427,-0.00002007,-0.000044
 45,-0.00001895,-0.00001041,0.00003363,0.00004986,0.00017277,0.00003058
 ,-0.00008097,-0.00006115,0.00006659,-0.00030815,-0.00039447,-0.0007113
 2,-0.00093538,-0.00001894,0.00077069,0.00126228,0.00697535,0.00040794,
 -0.02151624,0.00625185,0.00671652,0.04744507,-0.00048032,-0.05714610,0
 .00000015,-0.00000155,-0.00000079,-0.00000283,-0.00000053,0.00000413,0
 .00000394,0.00000986,0.00000710,-0.00000493,-0.00000150,0.00000558,-0.
 00001029,-0.00003231,-0.00002335,-0.00000399,0.00000523,0.00001874,0.0
 0009500,0.00003904,0.00003977,-0.00042716,-0.00008978,0.00009791,-0.00
 117998,-0.00349030,-0.00100480,0.02182757,-0.00642956,-0.00013268,-0.0
 4617791,-0.00243285,0.05085640,-0.31844385,0.07675112,0.04382595,-0.00
 995277,0.00200931,0.00485550,0.00201543,0.00387418,-0.00046263,-0.0005
 7245,0.00009115,0.00030385,-0.00003088,-0.00026935,-0.00040289,-0.0001
 2634,0.00001197,0.00001234,0.00007922,0.00008023,0.00001336,-0.0000465
 0,0.00000786,0.00001807,0.00003331,-0.00001503,-0.00003639,-0.00003457
 ,0.00001094,0.00000083,-0.00818442,0.00415330,-0.00045712,0.00035626,-
 0.00174516,-0.00144540,0.00030208,-0.00019691,-0.00002466,0.00000897,0
 .00007519,-0.00003421,0.00001019,-0.00000467,0.00001509,-0.00000491,-0
 .00001803,-0.00001358,-0.00000279,-0.00000275,0.00000605,0.00000214,0.
 00000583,0.00000353,-0.00000270,-0.00000165,0.00000500,0.00000099,-0.0
 0000097,-0.00000080,-0.00000292,0.00000638,-0.00000029,0.33459651,0.07
 436984,-0.05924361,0.00085033,0.01934478,-0.00065538,-0.00344410,0.002
 74024,0.00571553,0.00760958,0.00090576,0.00019764,-0.00047456,-0.00033
 162,-0.00112543,-0.00035965,0.00007331,-0.00003592,-0.00009546,0.00005
 623,0.00017823,0.00018619,0.00003220,0.00001114,-0.00002402,-0.0000417
 5,-0.00005389,-0.00000513,0.00002535,-0.00000842,-0.00000643,-0.010495
 73,0.00499404,0.00176373,-0.00191960,-0.00403840,-0.00339274,0.0000676
 7,-0.00014616,-0.00023776,-0.00000975,0.00009900,0.00008655,0.00000787
 ,0.00002275,-0.00000178,-0.00002020,-0.00005038,-0.00003110,0.00000447
 ,0.00000254,-0.00000553,0.00000556,0.00001568,0.00001001,0.00000349,0.
 00000270,-0.00000340,-0.00000159,-0.00000169,-0.00000120,0.00000638,0.
 00000632,0.00000800,-0.08482293,0.05411372,0.04744843,-0.00048156,-0.0
 5714700,-0.02151583,0.00625198,0.00671670,0.00126234,0.00697536,0.0004
 0807,-0.00093535,-0.00001895,0.00077069,-0.00030816,-0.00039448,-0.000
 71133,-0.00008097,-0.00006115,0.00006659,0.00004985,0.00017277,0.00003
 058,-0.00001895,-0.00001041,0.00003363,0.00000426,-0.00002007,-0.00004
 445,-0.00002109,0.00000162,0.00000599,0.02182749,-0.00642976,-0.000132
 94,-0.00118005,-0.00349031,-0.00100483,-0.00042716,-0.00008977,0.00009
 791,0.00009500,0.00003905,0.00003977,-0.00000399,0.00000523,0.00001874
 ,-0.00001029,-0.00003231,-0.00002335,-0.00000493,-0.00000150,0.0000055
 8,0.00000394,0.00000986,0.00000710,-0.00000283,-0.00000053,0.00000413,
 0.00000015,-0.00000155,-0.00000079,-0.00000029,0.00000800,0.00000192,-
 0.04618161,-0.00243153,0.05085729\\-0.00000865,-0.00001365,0.00002559,
 -0.00001595,0.00003117,-0.00003844,-0.00000164,-0.00004765,0.00007330,
 0.00000190,0.00004538,-0.00007019,0.00000584,-0.00005010,0.00007295,-0
 .00000584,0.00005012,-0.00007297,-0.00000200,-0.00004537,0.00007004,0.
 00000167,0.00004751,-0.00007332,0.00001590,-0.00003104,0.00003837,0.00
 000866,0.00001360,-0.00002554,0.00000737,0.00000029,-0.00000450,-0.000
 00337,-0.00000546,0.00001025,0.00001076,0.00000754,-0.00001748,-0.0000
 0913,-0.00000613,0.00001450,0.00000710,0.00000726,-0.00001506,-0.00000
 710,-0.00000732,0.00001507,0.00000918,0.00000616,-0.00001442,-0.000010
 76,-0.00000754,0.00001750,0.00000342,0.00000548,-0.00001019,-0.0000073
 6,-0.00000023,0.00000453,-0.00000345,-0.00000452,0.00000879,0.00000344
 ,0.00000450,-0.00000879\\\@


 SOME PEOPLE TRY TO PULL THE WOOL OVER YOUR EYES
 USING THE WRONG YARN.
 Job cpu time:       0 days  0 hours 12 minutes 24.5 seconds.
 Elapsed time:       0 days  0 hours 12 minutes 24.4 seconds.
 File lengths (MBytes):  RWF=    106 Int=      0 D2E=      0 Chk=      5 Scr=      1
 Normal termination of Gaussian 16 at Fri Oct 27 15:49:43 2023.
