 Entering Gaussian System, Link 0=g16
 Input=./com/6.com
 Output=./log/6.log
 Initial command:
 /home/shohei/gaussian/g16/l1.exe "/home/shohei/gaussian/scratch/Gau-15944.inp" -scrdir="/home/shohei/gaussian/scratch/"
 Entering Link 1 = /home/shohei/gaussian/g16/l1.exe PID=     15946.
  
 Copyright (c) 1988-2017, Gaussian, Inc.  All Rights Reserved.
  
 This is part of the Gaussian(R) 16 program.  It is based on
 the Gaussian(R) 09 system (copyright 2009, Gaussian, Inc.),
 the Gaussian(R) 03 system (copyright 2003, Gaussian, Inc.),
 the Gaussian(R) 98 system (copyright 1998, Gaussian, Inc.),
 the Gaussian(R) 94 system (copyright 1995, Gaussian, Inc.),
 the Gaussian 92(TM) system (copyright 1992, Gaussian, Inc.),
 the Gaussian 90(TM) system (copyright 1990, Gaussian, Inc.),
 the Gaussian 88(TM) system (copyright 1988, Gaussian, Inc.),
 the Gaussian 86(TM) system (copyright 1986, Carnegie Mellon
 University), and the Gaussian 82(TM) system (copyright 1983,
 Carnegie Mellon University). Gaussian is a federally registered
 trademark of Gaussian, Inc.
  
 This software contains proprietary and confidential information,
 including trade secrets, belonging to Gaussian, Inc.
  
 This software is provided under written license and may be
 used, copied, transmitted, or stored only in accord with that
 written license.
  
 The following legend is applicable only to US Government
 contracts under FAR:
  
                    RESTRICTED RIGHTS LEGEND
  
 Use, reproduction and disclosure by the US Government is
 subject to restrictions as set forth in subparagraphs (a)
 and (c) of the Commercial Computer Software - Restricted
 Rights clause in FAR 52.227-19.
  
 Gaussian, Inc.
 340 Quinnipiac St., Bldg. 40, Wallingford CT 06492
  
  
 ---------------------------------------------------------------
 Warning -- This program may not be used in any manner that
 competes with the business of Gaussian, Inc. or will provide
 assistance to any competitor of Gaussian, Inc.  The licensee
 of this program is prohibited from giving any competitor of
 Gaussian, Inc. access to this program.  By using this program,
 the user acknowledges that Gaussian, Inc. is engaged in the
 business of creating and licensing software in the field of
 computational chemistry and represents and warrants to the
 licensee that it is not a competitor of Gaussian, Inc. and that
 it will not use this program in any manner prohibited above.
 ---------------------------------------------------------------
  

 Cite this work as:
 Gaussian 16, Revision B.01,
 M. J. Frisch, G. W. Trucks, H. B. Schlegel, G. E. Scuseria, 
 M. A. Robb, J. R. Cheeseman, G. Scalmani, V. Barone, 
 G. A. Petersson, H. Nakatsuji, X. Li, M. Caricato, A. V. Marenich, 
 J. Bloino, B. G. Janesko, R. Gomperts, B. Mennucci, H. P. Hratchian, 
 J. V. Ortiz, A. F. Izmaylov, J. L. Sonnenberg, D. Williams-Young, 
 F. Ding, F. Lipparini, F. Egidi, J. Goings, B. Peng, A. Petrone, 
 T. Henderson, D. Ranasinghe, V. G. Zakrzewski, J. Gao, N. Rega, 
 G. Zheng, W. Liang, M. Hada, M. Ehara, K. Toyota, R. Fukuda, 
 J. Hasegawa, M. Ishida, T. Nakajima, Y. Honda, O. Kitao, H. Nakai, 
 T. Vreven, K. Throssell, J. A. Montgomery, Jr., J. E. Peralta, 
 F. Ogliaro, M. J. Bearpark, J. J. Heyd, E. N. Brothers, K. N. Kudin, 
 V. N. Staroverov, T. A. Keith, R. Kobayashi, J. Normand, 
 K. Raghavachari, A. P. Rendell, J. C. Burant, S. S. Iyengar, 
 J. Tomasi, M. Cossi, J. M. Millam, M. Klene, C. Adamo, R. Cammi, 
 J. W. Ochterski, R. L. Martin, K. Morokuma, O. Farkas, 
 J. B. Foresman, and D. J. Fox, Gaussian, Inc., Wallingford CT, 2016.
 
 ******************************************
 Gaussian 16:  EM64L-G16RevB.01 20-Dec-2017
                27-Oct-2023 
 ******************************************
 %chk=./chk/6.chk
 ---------------------------
 # B3LYP/6-31G(d,p) OPT FREQ
 ---------------------------
 1/18=20,19=15,26=3,38=1/1,3;
 2/9=110,12=2,17=6,18=5,40=1/2;
 3/5=1,6=6,7=101,11=2,25=1,30=1,71=1,74=-5/1,2,3;
 4//1;
 5/5=2,38=5/2;
 6/7=2,8=2,9=2,10=2,28=1/1;
 7//1,2,3,16;
 1/18=20,19=15,26=3/3(2);
 2/9=110/2;
 99//99;
 2/9=110/2;
 3/5=1,6=6,7=101,11=2,25=1,30=1,71=1,74=-5/1,2,3;
 4/5=5,16=3,69=1/1;
 5/5=2,38=5/2;
 7//1,2,3,16;
 1/18=20,19=15,26=3/3(-5);
 2/9=110/2;
 6/7=2,8=2,9=2,10=2,19=2,28=1/1;
 99/9=1/99;
 -----
 6poly
 -----
 Symbolic Z-matrix:
 Charge =  0 Multiplicity = 1
 C                     15.0499  -5.1298   -1.67814 
 C                     15.63881  -5.92726  -0.78401 
 C                     17.04192  -6.3579   -0.95206 
 C                     17.62758  -7.16083  -0.05388 
 C                     19.03029  -7.59432  -0.22235 
 C                     19.61321  -8.40281   0.67271 
 C                     21.01456  -8.84008   0.50287 
 C                     21.59412  -9.65526   1.39406 
 C                     22.99412  -10.09629   1.22288 
 C                     23.57094  -10.91682   2.11085 
 C                     24.96967  -11.35975   1.93842 
 C                     25.54718  -12.17992   2.81936 
 H                     15.58553  -4.7752   -2.55384 
 H                     15.06898  -6.26126   0.07898 
 H                     17.60262  -6.01665  -1.81938 
 H                     17.06566  -7.50242   0.81251 
 H                     19.59285  -7.25149  -1.08781 
 H                     19.0499  -8.74679   1.53723 
 H                     21.57881  -8.49472  -0.36047 
 H                     21.02913  -10.00176   2.25647 
 H                     23.56002  -9.74875   0.36147 
 H                     23.00527  -11.26561   2.97192 
 H                     25.54511  -11.01736   1.08249 
 H                     25.00523  -12.54427   3.68716 
 H                     26.57576  -12.49398   2.67421 
 H                     14.01796  -4.82538  -1.53628 
 

 GradGradGradGradGradGradGradGradGradGradGradGradGradGradGradGradGradGrad
 Berny optimization.
 Initialization pass.
                           ----------------------------
                           !    Initial Parameters    !
                           ! (Angstroms and Degrees)  !
 --------------------------                            --------------------------
 ! Name  Definition              Value          Derivative Info.                !
 --------------------------------------------------------------------------------
 ! R1    R(1,2)                  1.335          estimate D2E/DX2                !
 ! R2    R(1,13)                 1.086          estimate D2E/DX2                !
 ! R3    R(1,26)                 1.0852         estimate D2E/DX2                !
 ! R4    R(2,3)                  1.4773         estimate D2E/DX2                !
 ! R5    R(2,14)                 1.0867         estimate D2E/DX2                !
 ! R6    R(3,4)                  1.3396         estimate D2E/DX2                !
 ! R7    R(3,15)                 1.0877         estimate D2E/DX2                !
 ! R8    R(4,5)                  1.4778         estimate D2E/DX2                !
 ! R9    R(4,16)                 1.0877         estimate D2E/DX2                !
 ! R10   R(5,6)                  1.3396         estimate D2E/DX2                !
 ! R11   R(5,17)                 1.0877         estimate D2E/DX2                !
 ! R12   R(6,7)                  1.4778         estimate D2E/DX2                !
 ! R13   R(6,18)                 1.0877         estimate D2E/DX2                !
 ! R14   R(7,8)                  1.3396         estimate D2E/DX2                !
 ! R15   R(7,19)                 1.0877         estimate D2E/DX2                !
 ! R16   R(8,9)                  1.4778         estimate D2E/DX2                !
 ! R17   R(8,20)                 1.0877         estimate D2E/DX2                !
 ! R18   R(9,10)                 1.3396         estimate D2E/DX2                !
 ! R19   R(9,21)                 1.0877         estimate D2E/DX2                !
 ! R20   R(10,11)                1.4773         estimate D2E/DX2                !
 ! R21   R(10,22)                1.0877         estimate D2E/DX2                !
 ! R22   R(11,12)                1.335          estimate D2E/DX2                !
 ! R23   R(11,23)                1.0867         estimate D2E/DX2                !
 ! R24   R(12,24)                1.0861         estimate D2E/DX2                !
 ! R25   R(12,25)                1.0852         estimate D2E/DX2                !
 ! A1    A(2,1,13)             121.1662         estimate D2E/DX2                !
 ! A2    A(2,1,26)             119.966          estimate D2E/DX2                !
 ! A3    A(13,1,26)            118.8678         estimate D2E/DX2                !
 ! A4    A(1,2,3)              121.1255         estimate D2E/DX2                !
 ! A5    A(1,2,14)             118.9567         estimate D2E/DX2                !
 ! A6    A(3,2,14)             119.9178         estimate D2E/DX2                !
 ! A7    A(2,3,4)              120.9103         estimate D2E/DX2                !
 ! A8    A(2,3,15)             119.2653         estimate D2E/DX2                !
 ! A9    A(4,3,15)             119.8243         estimate D2E/DX2                !
 ! A10   A(3,4,5)              120.9553         estimate D2E/DX2                !
 ! A11   A(3,4,16)             119.7663         estimate D2E/DX2                !
 ! A12   A(5,4,16)             119.2784         estimate D2E/DX2                !
 ! A13   A(4,5,6)              120.9233         estimate D2E/DX2                !
 ! A14   A(4,5,17)             119.2876         estimate D2E/DX2                !
 ! A15   A(6,5,17)             119.7891         estimate D2E/DX2                !
 ! A16   A(5,6,7)              120.9588         estimate D2E/DX2                !
 ! A17   A(5,6,18)             119.7735         estimate D2E/DX2                !
 ! A18   A(7,6,18)             119.2675         estimate D2E/DX2                !
 ! A19   A(6,7,8)              120.9207         estimate D2E/DX2                !
 ! A20   A(6,7,19)             119.289          estimate D2E/DX2                !
 ! A21   A(8,7,19)             119.7902         estimate D2E/DX2                !
 ! A22   A(7,8,9)              120.9578         estimate D2E/DX2                !
 ! A23   A(7,8,20)             119.7751         estimate D2E/DX2                !
 ! A24   A(9,8,20)             119.267          estimate D2E/DX2                !
 ! A25   A(8,9,10)             120.9279         estimate D2E/DX2                !
 ! A26   A(8,9,21)             119.2929         estimate D2E/DX2                !
 ! A27   A(10,9,21)            119.7792         estimate D2E/DX2                !
 ! A28   A(9,10,11)            120.9295         estimate D2E/DX2                !
 ! A29   A(9,10,22)            119.8174         estimate D2E/DX2                !
 ! A30   A(11,10,22)           119.2531         estimate D2E/DX2                !
 ! A31   A(10,11,12)           121.1156         estimate D2E/DX2                !
 ! A32   A(10,11,23)           119.9224         estimate D2E/DX2                !
 ! A33   A(12,11,23)           118.962          estimate D2E/DX2                !
 ! A34   A(11,12,24)           121.1647         estimate D2E/DX2                !
 ! A35   A(11,12,25)           119.9706         estimate D2E/DX2                !
 ! A36   A(24,12,25)           118.8647         estimate D2E/DX2                !
 ! D1    D(13,1,2,3)            -0.0086         estimate D2E/DX2                !
 ! D2    D(13,1,2,14)         -179.9686         estimate D2E/DX2                !
 ! D3    D(26,1,2,3)           179.9688         estimate D2E/DX2                !
 ! D4    D(26,1,2,14)            0.0088         estimate D2E/DX2                !
 ! D5    D(1,2,3,4)           -179.8349         estimate D2E/DX2                !
 ! D6    D(1,2,3,15)             0.0871         estimate D2E/DX2                !
 ! D7    D(14,2,3,4)             0.1247         estimate D2E/DX2                !
 ! D8    D(14,2,3,15)         -179.9532         estimate D2E/DX2                !
 ! D9    D(2,3,4,5)            179.8822         estimate D2E/DX2                !
 ! D10   D(2,3,4,16)            -0.0103         estimate D2E/DX2                !
 ! D11   D(15,3,4,5)            -0.0395         estimate D2E/DX2                !
 ! D12   D(15,3,4,16)         -179.9319         estimate D2E/DX2                !
 ! D13   D(3,4,5,6)           -179.6556         estimate D2E/DX2                !
 ! D14   D(3,4,5,17)             0.2081         estimate D2E/DX2                !
 ! D15   D(16,4,5,6)             0.2373         estimate D2E/DX2                !
 ! D16   D(16,4,5,17)         -179.899          estimate D2E/DX2                !
 ! D17   D(4,5,6,7)            179.8128         estimate D2E/DX2                !
 ! D18   D(4,5,6,18)            -0.0378         estimate D2E/DX2                !
 ! D19   D(17,5,6,7)            -0.0502         estimate D2E/DX2                !
 ! D20   D(17,5,6,18)         -179.9008         estimate D2E/DX2                !
 ! D21   D(5,6,7,8)           -179.5823         estimate D2E/DX2                !
 ! D22   D(5,6,7,19)             0.2697         estimate D2E/DX2                !
 ! D23   D(18,6,7,8)             0.2691         estimate D2E/DX2                !
 ! D24   D(18,6,7,19)         -179.8789         estimate D2E/DX2                !
 ! D25   D(6,7,8,9)            179.8142         estimate D2E/DX2                !
 ! D26   D(6,7,8,20)            -0.0502         estimate D2E/DX2                !
 ! D27   D(19,7,8,9)            -0.0371         estimate D2E/DX2                !
 ! D28   D(19,7,8,20)         -179.9015         estimate D2E/DX2                !
 ! D29   D(7,8,9,10)          -179.6616         estimate D2E/DX2                !
 ! D30   D(7,8,9,21)             0.2333         estimate D2E/DX2                !
 ! D31   D(20,8,9,10)            0.2035         estimate D2E/DX2                !
 ! D32   D(20,8,9,21)         -179.9016         estimate D2E/DX2                !
 ! D33   D(8,9,10,11)          179.8845         estimate D2E/DX2                !
 ! D34   D(8,9,10,22)           -0.0389         estimate D2E/DX2                !
 ! D35   D(21,9,10,11)          -0.0098         estimate D2E/DX2                !
 ! D36   D(21,9,10,22)        -179.9332         estimate D2E/DX2                !
 ! D37   D(9,10,11,12)        -179.8401         estimate D2E/DX2                !
 ! D38   D(9,10,11,23)           0.1206         estimate D2E/DX2                !
 ! D39   D(22,10,11,12)          0.0837         estimate D2E/DX2                !
 ! D40   D(22,10,11,23)       -179.9555         estimate D2E/DX2                !
 ! D41   D(10,11,12,24)         -0.0084         estimate D2E/DX2                !
 ! D42   D(10,11,12,25)        179.9697         estimate D2E/DX2                !
 ! D43   D(23,11,12,24)       -179.9695         estimate D2E/DX2                !
 ! D44   D(23,11,12,25)          0.0086         estimate D2E/DX2                !
 --------------------------------------------------------------------------------
 Trust Radius=3.00D-01 FncErr=1.00D-07 GrdErr=1.00D-06 EigMax=2.50D+02 EigMin=1.00D-04
 Number of steps in this run=    115 maximum allowed number of steps=    156.
 GradGradGradGradGradGradGradGradGradGradGradGradGradGradGradGradGradGrad

                          Input orientation:                          
 ---------------------------------------------------------------------
 Center     Atomic      Atomic             Coordinates (Angstroms)
 Number     Number       Type             X           Y           Z
 ---------------------------------------------------------------------
      1          6           0       15.049902   -5.129802   -1.678135
      2          6           0       15.638807   -5.927256   -0.784005
      3          6           0       17.041925   -6.357904   -0.952065
      4          6           0       17.627579   -7.160832   -0.053882
      5          6           0       19.030290   -7.594317   -0.222353
      6          6           0       19.613208   -8.402813    0.672707
      7          6           0       21.014559   -8.840076    0.502872
      8          6           0       21.594121   -9.655257    1.394056
      9          6           0       22.994122  -10.096288    1.222881
     10          6           0       23.570942  -10.916824    2.110847
     11          6           0       24.969666  -11.359746    1.938420
     12          6           0       25.547180  -12.179921    2.819360
     13          1           0       15.585529   -4.775204   -2.553842
     14          1           0       15.068979   -6.261260    0.078981
     15          1           0       17.602615   -6.016653   -1.819384
     16          1           0       17.065663   -7.502416    0.812510
     17          1           0       19.592852   -7.251492   -1.087810
     18          1           0       19.049905   -8.746789    1.537226
     19          1           0       21.578810   -8.494716   -0.360474
     20          1           0       21.029133  -10.001756    2.256467
     21          1           0       23.560019   -9.748751    0.361467
     22          1           0       23.005269  -11.265614    2.971920
     23          1           0       25.545106  -11.017355    1.082488
     24          1           0       25.005235  -12.544270    3.687160
     25          1           0       26.575761  -12.493982    2.674214
     26          1           0       14.017959   -4.825385   -1.536279
 ---------------------------------------------------------------------
                    Distance matrix (angstroms):
                    1          2          3          4          5
     1  C    0.000000
     2  C    1.334994   0.000000
     3  C    2.450217   1.477309   0.000000
     4  C    3.661652   2.451531   1.339558   0.000000
     5  C    4.902716   3.820563   2.452508   1.477799   0.000000
     6  C    6.087924   4.903698   3.665111   2.452177   1.339624
     7  C    7.355273   6.248142   4.905083   3.821187   2.452588
     8  C    8.529062   7.355794   6.090920   4.904298   3.665171
     9  C    9.807778   8.689596   7.357619   6.248745   4.905153
    10  C   10.975160   9.807891   8.531896   7.356432   6.091009
    11  C   12.259420  11.135011   9.809302   8.689441   7.356873
    12  C   13.421046  12.257892  10.975377   9.806470   8.529340
    13  H    1.086047   2.112436   2.681737   4.013849   5.024899
    14  H    2.089980   1.086742   2.228208   2.715385   4.190445
    15  H    2.706067   2.221834   1.087690   2.103988   2.660411
    16  H    3.986966   2.658177   2.103377   1.087687   2.222419
    17  H    5.048608   4.180953   2.706318   2.222504   1.087668
    18  H    6.278627   4.997346   3.991908   2.658928   2.103496
    19  H    7.462273   6.484972   5.049681   4.181564   2.706427
    20  H    8.658419   7.409564   6.282529   4.997913   3.991952
    21  H    9.895289   8.869133   7.463830   6.485652   5.049839
    22  H   11.070639   9.842246   8.662837   7.411091   6.283491
    23  H   12.346401  11.292815   9.907269   8.879828   7.474130
    24  H   13.522920  12.308784  11.099903   9.869479   8.688285
    25  H   14.353380  13.217342  11.903587  10.768239   9.451505
    26  H    1.085219   2.099330   3.440100   4.547655   5.875105
                    6          7          8          9         10
     6  C    0.000000
     7  C    1.477777   0.000000
     8  C    2.452137   1.339635   0.000000
     9  C    3.821142   2.452581   1.477773   0.000000
    10  C    4.904300   3.665183   2.452175   1.339584   0.000000
    11  C    6.247969   4.904326   3.820461   2.451754   1.477274
    12  C    7.354365   6.088131   4.902254   3.661745   2.450086
    13  H    6.308119   7.439156   8.689303   9.872427  11.101605
    14  H    5.058536   6.494605   7.471688   8.878280   9.903845
    15  H    3.993340   5.000594   6.284724   7.413983   8.664832
    16  H    2.705595   4.180788   5.047757   6.484073   7.460732
    17  H    2.103658   2.659909   3.992847   5.000080   6.284208
    18  H    1.087668   2.222264   2.705337   4.180527   5.047561
    19  H    2.222499   1.087667   2.103679   2.659916   3.992822
    20  H    2.658901   2.103523   1.087670   2.222255   2.705429
    21  H    4.181595   2.706483   2.222551   1.087683   2.103531
    22  H    4.998808   3.992789   2.659745   2.103945   1.087697
    23  H    6.495472   5.059877   4.190784   2.715805   2.228217
    24  H    7.437240   6.307634   5.023984   4.013709   2.681518
    25  H    8.319906   6.999481   5.874853   4.547905   3.440021
    26  H    6.998888   8.320354   9.450543  10.768793  11.902380
                   11         12         13         14         15
    11  C    0.000000
    12  C    1.335014   0.000000
    13  H   12.312540  13.525369   0.000000
    14  H   11.290513  12.342323   3.067074   0.000000
    15  H    9.845972  11.073388   2.479770   3.175364   0.000000
    16  H    8.866788   9.891543   4.578297   2.462779   3.069638
    17  H    7.412554   8.660798   4.933547   4.775708   2.453786
    18  H    6.483214   7.459547   6.671748   4.914480   4.562359
    19  H    4.999121   6.280130   7.386816   6.896329   4.907070
    20  H    4.180083   5.047178   8.949231   7.365881   6.650912
    21  H    2.658795   3.987560   9.840105   9.183690   7.360389
    22  H    2.221674   2.705650  11.300973   9.818216   8.927309
    23  H    1.086731   2.090045  12.303679  11.548884   9.824003
    24  H    2.112452   1.086063  13.712744  12.297331  11.301796
    25  H    2.099387   1.085210  14.411707  13.341218  11.944269
    26  H   13.217840  14.352133   1.869554   2.403215   3.788012
                   16         17         18         19         20
    16  H    0.000000
    17  H    3.171886   0.000000
    18  H    2.451712   3.069449   0.000000
    19  H    4.767499   2.453295   3.171777   0.000000
    20  H    4.903142   4.561913   2.451447   3.069478   0.000000
    21  H    6.886662   4.906641   4.767333   2.453363   3.171816
    22  H    7.355517   6.651254   4.903849   4.562621   2.452412
    23  H    9.183063   7.370295   6.895643   4.917047   4.775320
    24  H    9.834668   8.950292   7.383023   6.672527   4.931597
    25  H   10.900626   9.507763   8.483673   7.083289   6.095145
    26  H    4.687409   6.096438   7.081266   8.486046   9.504541
                   21         22         23         24         25
    21  H    0.000000
    22  H    3.069704   0.000000
    23  H    2.463696   3.175273   0.000000
    24  H    4.578625   2.479192   3.067124   0.000000
    25  H    4.688261   3.787602   2.403387   1.869530   0.000000
    26  H   10.903756  11.940358  13.344421  14.407836  15.304706
                   26
    26  H    0.000000
 Stoichiometry    C12H14
 Framework group  C1[X(C12H14)]
 Deg. of freedom    72
 Full point group                 C1      NOp   1
 Largest Abelian subgroup         C1      NOp   1
 Largest concise Abelian subgroup C1      NOp   1
                         Standard orientation:                         
 ---------------------------------------------------------------------
 Center     Atomic      Atomic             Coordinates (Angstroms)
 Number     Number       Type             X           Y           Z
 ---------------------------------------------------------------------
      1          6           0        6.706032    0.251208    0.023229
      2          6           0        5.551412   -0.418761    0.008884
      3          6           0        4.256241    0.291822    0.002204
      4          6           0        3.100181   -0.384802   -0.008885
      5          6           0        1.804005    0.324987   -0.012968
      6          6           0        0.648233   -0.352336   -0.017153
      7          6           0       -0.648375    0.356629   -0.017099
      8          6           0       -1.803706   -0.321468   -0.012907
      9          6           0       -3.100758    0.386662   -0.008739
     10          6           0       -4.255657   -0.291993    0.002240
     11          6           0       -5.552274    0.415875    0.008960
     12          6           0       -6.705400   -0.256705    0.023092
     13          1           0        6.725739    1.337054    0.030252
     14          1           0        5.573592   -1.505259    0.002746
     15          1           0        4.246434    1.379454    0.007678
     16          1           0        3.111083   -1.472426   -0.013229
     17          1           0        1.792937    1.412595   -0.010298
     18          1           0        0.659591   -1.439945   -0.018189
     19          1           0       -0.660141    1.444232   -0.018069
     20          1           0       -1.791649   -1.409068   -0.010315
     21          1           0       -3.113315    1.474265   -0.012957
     22          1           0       -4.243819   -1.379613    0.007562
     23          1           0       -5.576800    1.502313    0.003013
     24          1           0       -6.722634   -1.342611    0.029904
     25          1           0       -7.647314    0.282230    0.028317
     26          1           0        7.646694   -0.289928    0.028432
 ---------------------------------------------------------------------
 Rotational constants (GHZ):          12.1326680           0.1738222           0.1713709
 Standard basis: 6-31G(d,p) (6D, 7F)
 There are   250 symmetry adapted cartesian basis functions of A   symmetry.
 There are   250 symmetry adapted basis functions of A   symmetry.
   250 basis functions,   434 primitive gaussians,   250 cartesian basis functions
    43 alpha electrons       43 beta electrons
       nuclear repulsion energy       534.7669841911 Hartrees.
 NAtoms=   26 NActive=   26 NUniq=   26 SFac= 1.00D+00 NAtFMM=   60 NAOKFM=F Big=F
 Integral buffers will be    131072 words long.
 Raffenetti 2 integral format.
 Two-electron integral symmetry is turned on.
 One-electron integrals computed using PRISM.
 NBasis=   250 RedAO= T EigKep=  1.41D-03  NBF=   250
 NBsUse=   250 1.00D-06 EigRej= -1.00D+00 NBFU=   250
 ExpMin= 1.61D-01 ExpMax= 3.05D+03 ExpMxC= 4.57D+02 IAcc=3 IRadAn=         5 AccDes= 0.00D+00
 Harris functional with IExCor=  402 and IRadAn=       5 diagonalized for initial guess.
 HarFok:  IExCor=  402 AccDes= 0.00D+00 IRadAn=         5 IDoV= 1 UseB2=F ITyADJ=14
 ICtDFT=  3500011 ScaDFX=  1.000000  1.000000  1.000000  1.000000
 FoFCou: FMM=F IPFlag=           0 FMFlag=      100000 FMFlg1=           0
         NFxFlg=           0 DoJE=T BraDBF=F KetDBF=T FulRan=T
         wScrn=  0.000000 ICntrl=       500 IOpCl=  0 I1Cent=   200000004 NGrid=           0
         NMat0=    1 NMatS0=      1 NMatT0=    0 NMatD0=    1 NMtDS0=    0 NMtDT0=    0
 Petite list used in FoFCou.
 Requested convergence on RMS density matrix=1.00D-08 within 128 cycles.
 Requested convergence on MAX density matrix=1.00D-06.
 Requested convergence on             energy=1.00D-06.
 No special actions if energy rises.
 Integral accuracy reduced to 1.0D-05 until final iterations.
 Initial convergence to 1.0D-05 achieved.  Increase integral accuracy.
 SCF Done:  E(RB3LYP) =  -465.631672868     A.U. after   13 cycles
            NFock= 13  Conv=0.60D-08     -V/T= 2.0100

 **********************************************************************

            Population analysis using the SCF Density.

 **********************************************************************

 Orbital symmetries:
       Occupied  (A) (A) (A) (A) (A) (A) (A) (A) (A) (A) (A) (A)
                 (A) (A) (A) (A) (A) (A) (A) (A) (A) (A) (A) (A)
                 (A) (A) (A) (A) (A) (A) (A) (A) (A) (A) (A) (A)
                 (A) (A) (A) (A) (A) (A) (A)
       Virtual   (A) (A) (A) (A) (A) (A) (A) (A) (A) (A) (A) (A)
                 (A) (A) (A) (A) (A) (A) (A) (A) (A) (A) (A) (A)
                 (A) (A) (A) (A) (A) (A) (A) (A) (A) (A) (A) (A)
                 (A) (A) (A) (A) (A) (A) (A) (A) (A) (A) (A) (A)
                 (A) (A) (A) (A) (A) (A) (A) (A) (A) (A) (A) (A)
                 (A) (A) (A) (A) (A) (A) (A) (A) (A) (A) (A) (A)
                 (A) (A) (A) (A) (A) (A) (A) (A) (A) (A) (A) (A)
                 (A) (A) (A) (A) (A) (A) (A) (A) (A) (A) (A) (A)
                 (A) (A) (A) (A) (A) (A) (A) (A) (A) (A) (A) (A)
                 (A) (A) (A) (A) (A) (A) (A) (A) (A) (A) (A) (A)
                 (A) (A) (A) (A) (A) (A) (A) (A) (A) (A) (A) (A)
                 (A) (A) (A) (A) (A) (A) (A) (A) (A) (A) (A) (A)
                 (A) (A) (A) (A) (A) (A) (A) (A) (A) (A) (A) (A)
                 (A) (A) (A) (A) (A) (A) (A) (A) (A) (A) (A) (A)
                 (A) (A) (A) (A) (A) (A) (A) (A) (A) (A) (A) (A)
                 (A) (A) (A) (A) (A) (A) (A) (A) (A) (A) (A) (A)
                 (A) (A) (A) (A) (A) (A) (A) (A) (A) (A) (A) (A)
                 (A) (A) (A)
 The electronic state is 1-A.
 Alpha  occ. eigenvalues --  -10.19163 -10.19161 -10.19145 -10.19132 -10.19118
 Alpha  occ. eigenvalues --  -10.19112 -10.19049 -10.19039 -10.18972 -10.18969
 Alpha  occ. eigenvalues --  -10.17947 -10.17944  -0.82624  -0.81361  -0.79354
 Alpha  occ. eigenvalues --   -0.76672  -0.73466  -0.70265  -0.62472  -0.58594
 Alpha  occ. eigenvalues --   -0.56783  -0.55817  -0.54908  -0.54528  -0.48411
 Alpha  occ. eigenvalues --   -0.47360  -0.45776  -0.45014  -0.41812  -0.41195
 Alpha  occ. eigenvalues --   -0.38904  -0.38647  -0.37489  -0.37264  -0.36202
 Alpha  occ. eigenvalues --   -0.34951  -0.34886  -0.33392  -0.33287  -0.30716
 Alpha  occ. eigenvalues --   -0.27242  -0.23033  -0.18706
 Alpha virt. eigenvalues --   -0.05938  -0.01182   0.03665   0.07383   0.08683
 Alpha virt. eigenvalues --    0.09386   0.09904   0.10373   0.12489   0.12639
 Alpha virt. eigenvalues --    0.12935   0.14343   0.14440   0.15329   0.16062
 Alpha virt. eigenvalues --    0.16203   0.18858   0.19737   0.20045   0.20705
 Alpha virt. eigenvalues --    0.27218   0.31448   0.31549   0.31966   0.35186
 Alpha virt. eigenvalues --    0.35655   0.37285   0.38029   0.40594   0.41459
 Alpha virt. eigenvalues --    0.42158   0.47143   0.49762   0.51869   0.52860
 Alpha virt. eigenvalues --    0.54547   0.54573   0.56907   0.57294   0.57881
 Alpha virt. eigenvalues --    0.58880   0.58894   0.59825   0.59843   0.60900
 Alpha virt. eigenvalues --    0.62398   0.62750   0.63270   0.63867   0.65649
 Alpha virt. eigenvalues --    0.66545   0.68598   0.69271   0.69472   0.70003
 Alpha virt. eigenvalues --    0.74267   0.74639   0.78926   0.80427   0.82644
 Alpha virt. eigenvalues --    0.83556   0.84271   0.84734   0.85568   0.86522
 Alpha virt. eigenvalues --    0.86666   0.87285   0.87858   0.89173   0.91405
 Alpha virt. eigenvalues --    0.91822   0.92230   0.93667   0.96912   0.97464
 Alpha virt. eigenvalues --    1.03777   1.03823   1.06483   1.06522   1.07954
 Alpha virt. eigenvalues --    1.08698   1.10054   1.13139   1.18789   1.19615
 Alpha virt. eigenvalues --    1.25929   1.29607   1.29941   1.30052   1.30590
 Alpha virt. eigenvalues --    1.31365   1.32064   1.32456   1.32966   1.34268
 Alpha virt. eigenvalues --    1.36395   1.38193   1.40338   1.42109   1.42832
 Alpha virt. eigenvalues --    1.45667   1.48545   1.50838   1.50993   1.51674
 Alpha virt. eigenvalues --    1.51930   1.76325   1.76489   1.76609   1.77451
 Alpha virt. eigenvalues --    1.77783   1.83838   1.85984   1.86494   1.89003
 Alpha virt. eigenvalues --    1.92185   1.92963   1.93890   1.95379   1.95867
 Alpha virt. eigenvalues --    1.96250   1.98349   1.98430   2.02765   2.03276
 Alpha virt. eigenvalues --    2.04914   2.08524   2.09805   2.10897   2.13096
 Alpha virt. eigenvalues --    2.16738   2.17351   2.18658   2.19230   2.21573
 Alpha virt. eigenvalues --    2.23034   2.23302   2.27028   2.27201   2.31393
 Alpha virt. eigenvalues --    2.35875   2.39087   2.41397   2.41804   2.46047
 Alpha virt. eigenvalues --    2.47156   2.48145   2.49407   2.49428   2.49925
 Alpha virt. eigenvalues --    2.51555   2.51740   2.52771   2.56565   2.57086
 Alpha virt. eigenvalues --    2.58155   2.58293   2.59552   2.62289   2.64041
 Alpha virt. eigenvalues --    2.66103   2.66917   2.67799   2.68545   2.70181
 Alpha virt. eigenvalues --    2.70724   2.71330   2.73195   2.75894   2.78415
 Alpha virt. eigenvalues --    2.81632   2.86718   2.87879   2.88741   2.91470
 Alpha virt. eigenvalues --    2.93339   2.93779   2.97168   2.97702   2.99643
 Alpha virt. eigenvalues --    2.99990   3.27964   3.28062   3.35550   3.36967
 Alpha virt. eigenvalues --    3.39220   3.41960   3.45950   3.51540   3.54850
 Alpha virt. eigenvalues --    3.60597   3.62752   3.66136   3.70544   3.71382
 Alpha virt. eigenvalues --    4.13686   4.13899   4.14416   4.15698   4.18328
 Alpha virt. eigenvalues --    4.24059   4.28455   4.37320   4.47531   4.58212
 Alpha virt. eigenvalues --    4.67637   4.74058
          Condensed to atoms (all electrons):
               1          2          3          4          5          6
     1  C    4.965414   0.618788  -0.031452   0.002697  -0.000277   0.000005
     2  C    0.618788   4.740005   0.420891  -0.019964   0.004047  -0.000268
     3  C   -0.031452   0.420891   4.861323   0.577984  -0.018362   0.002501
     4  C    0.002697  -0.019964   0.577984   4.868716   0.392491  -0.016526
     5  C   -0.000277   0.004047  -0.018362   0.392491   4.887317   0.564078
     6  C    0.000005  -0.000268   0.002501  -0.016526   0.564078   4.881744
     7  C   -0.000000   0.000002  -0.000255   0.003652  -0.017176   0.394534
     8  C   -0.000000  -0.000000   0.000004  -0.000256   0.002518  -0.017098
     9  C    0.000000   0.000000  -0.000000   0.000002  -0.000256   0.003651
    10  C    0.000000   0.000000  -0.000000  -0.000000   0.000004  -0.000255
    11  C   -0.000000   0.000000   0.000000   0.000000  -0.000000   0.000002
    12  C    0.000000  -0.000000   0.000000   0.000000  -0.000000  -0.000000
    13  H    0.382768  -0.035915  -0.012736   0.000562  -0.000000  -0.000000
    14  H   -0.050976   0.381973  -0.047476  -0.005756   0.000269  -0.000005
    15  H   -0.005159  -0.046680   0.379520  -0.051025  -0.009559   0.000549
    16  H    0.000487  -0.009067  -0.053579   0.381381  -0.048028  -0.005253
    17  H   -0.000003   0.000237  -0.005226  -0.048001   0.381109  -0.052685
    18  H    0.000000  -0.000004   0.000533  -0.009224  -0.052920   0.381007
    19  H    0.000000  -0.000000  -0.000004   0.000248  -0.005268  -0.047889
    20  H    0.000000   0.000000  -0.000000  -0.000004   0.000543  -0.009288
    21  H   -0.000000  -0.000000   0.000000  -0.000000  -0.000004   0.000251
    22  H    0.000000  -0.000000   0.000000   0.000000  -0.000000  -0.000004
    23  H   -0.000000   0.000000   0.000000  -0.000000   0.000000  -0.000000
    24  H    0.000000  -0.000000   0.000000  -0.000000   0.000000   0.000000
    25  H    0.000000   0.000000   0.000000   0.000000  -0.000000   0.000000
    26  H    0.369505  -0.020432   0.004036  -0.000224   0.000003  -0.000000
               7          8          9         10         11         12
     1  C   -0.000000  -0.000000   0.000000   0.000000  -0.000000   0.000000
     2  C    0.000002  -0.000000   0.000000   0.000000   0.000000  -0.000000
     3  C   -0.000255   0.000004  -0.000000  -0.000000   0.000000   0.000000
     4  C    0.003652  -0.000256   0.000002  -0.000000   0.000000   0.000000
     5  C   -0.017176   0.002518  -0.000256   0.000004  -0.000000  -0.000000
     6  C    0.394534  -0.017098   0.003651  -0.000255   0.000002  -0.000000
     7  C    4.881911   0.564075  -0.016597   0.002504  -0.000268   0.000005
     8  C    0.564075   4.887152   0.392495  -0.018306   0.004045  -0.000277
     9  C   -0.016597   0.392495   4.868823   0.577976  -0.020008   0.002703
    10  C    0.002504  -0.018306   0.577976   4.861230   0.420891  -0.031434
    11  C   -0.000268   0.004045  -0.020008   0.420891   4.740058   0.618778
    12  C    0.000005  -0.000277   0.002703  -0.031434   0.618778   4.965374
    13  H    0.000000   0.000000  -0.000000   0.000000  -0.000000   0.000000
    14  H   -0.000000   0.000000  -0.000000   0.000000   0.000000  -0.000000
    15  H   -0.000004  -0.000000   0.000000   0.000000  -0.000000   0.000000
    16  H    0.000252  -0.000004  -0.000000   0.000000  -0.000000  -0.000000
    17  H   -0.009273   0.000541  -0.000004  -0.000000   0.000000   0.000000
    18  H   -0.047924  -0.005276   0.000250  -0.000004  -0.000000   0.000000
    19  H    0.380985  -0.052890  -0.009207   0.000531  -0.000004   0.000000
    20  H   -0.052714   0.381131  -0.048030  -0.005234   0.000238  -0.000003
    21  H   -0.005247  -0.048003   0.381368  -0.053559  -0.009054   0.000486
    22  H    0.000550  -0.009567  -0.051040   0.379532  -0.046693  -0.005166
    23  H   -0.000005   0.000269  -0.005754  -0.047467   0.381972  -0.050972
    24  H   -0.000000  -0.000000   0.000562  -0.012739  -0.035920   0.382769
    25  H   -0.000000   0.000003  -0.000224   0.004034  -0.020437   0.369509
    26  H    0.000000  -0.000000   0.000000   0.000000   0.000000   0.000000
              13         14         15         16         17         18
     1  C    0.382768  -0.050976  -0.005159   0.000487  -0.000003   0.000000
     2  C   -0.035915   0.381973  -0.046680  -0.009067   0.000237  -0.000004
     3  C   -0.012736  -0.047476   0.379520  -0.053579  -0.005226   0.000533
     4  C    0.000562  -0.005756  -0.051025   0.381381  -0.048001  -0.009224
     5  C   -0.000000   0.000269  -0.009559  -0.048028   0.381109  -0.052920
     6  C   -0.000000  -0.000005   0.000549  -0.005253  -0.052685   0.381007
     7  C    0.000000  -0.000000  -0.000004   0.000252  -0.009273  -0.047924
     8  C    0.000000   0.000000  -0.000000  -0.000004   0.000541  -0.005276
     9  C   -0.000000  -0.000000   0.000000  -0.000000  -0.000004   0.000250
    10  C    0.000000   0.000000   0.000000   0.000000  -0.000000  -0.000004
    11  C   -0.000000   0.000000  -0.000000  -0.000000   0.000000  -0.000000
    12  C    0.000000  -0.000000   0.000000  -0.000000   0.000000   0.000000
    13  H    0.601476   0.005979   0.004582   0.000014   0.000001  -0.000000
    14  H    0.005979   0.631690   0.004336   0.004190   0.000005   0.000001
    15  H    0.004582   0.004336   0.631523   0.006058   0.004048   0.000014
    16  H    0.000014   0.004190   0.006058   0.634048   0.004267   0.004067
    17  H    0.000001   0.000005   0.004048   0.004267   0.634054   0.006062
    18  H   -0.000000   0.000001   0.000014   0.004067   0.006062   0.634524
    19  H   -0.000000  -0.000000   0.000001   0.000005   0.004047   0.004270
    20  H    0.000000  -0.000000  -0.000000   0.000001   0.000014   0.004056
    21  H    0.000000   0.000000  -0.000000  -0.000000   0.000001   0.000005
    22  H   -0.000000   0.000000   0.000000  -0.000000  -0.000000   0.000001
    23  H    0.000000   0.000000   0.000000   0.000000  -0.000000  -0.000000
    24  H    0.000000   0.000000  -0.000000   0.000000   0.000000  -0.000000
    25  H    0.000000   0.000000  -0.000000   0.000000  -0.000000   0.000000
    26  H   -0.042377  -0.008100   0.000025  -0.000008   0.000000  -0.000000
              19         20         21         22         23         24
     1  C    0.000000   0.000000  -0.000000   0.000000  -0.000000   0.000000
     2  C   -0.000000   0.000000  -0.000000  -0.000000   0.000000  -0.000000
     3  C   -0.000004  -0.000000   0.000000   0.000000   0.000000   0.000000
     4  C    0.000248  -0.000004  -0.000000   0.000000  -0.000000  -0.000000
     5  C   -0.005268   0.000543  -0.000004  -0.000000   0.000000   0.000000
     6  C   -0.047889  -0.009288   0.000251  -0.000004  -0.000000   0.000000
     7  C    0.380985  -0.052714  -0.005247   0.000550  -0.000005  -0.000000
     8  C   -0.052890   0.381131  -0.048003  -0.009567   0.000269  -0.000000
     9  C   -0.009207  -0.048030   0.381368  -0.051040  -0.005754   0.000562
    10  C    0.000531  -0.005234  -0.053559   0.379532  -0.047467  -0.012739
    11  C   -0.000004   0.000238  -0.009054  -0.046693   0.381972  -0.035920
    12  C    0.000000  -0.000003   0.000486  -0.005166  -0.050972   0.382769
    13  H   -0.000000   0.000000   0.000000  -0.000000   0.000000   0.000000
    14  H   -0.000000  -0.000000   0.000000   0.000000   0.000000   0.000000
    15  H    0.000001  -0.000000  -0.000000   0.000000   0.000000  -0.000000
    16  H    0.000005   0.000001  -0.000000  -0.000000   0.000000   0.000000
    17  H    0.004047   0.000014   0.000001  -0.000000  -0.000000   0.000000
    18  H    0.004270   0.004056   0.000005   0.000001  -0.000000  -0.000000
    19  H    0.634455   0.006061   0.004059   0.000014   0.000001  -0.000000
    20  H    0.006061   0.634104   0.004268   0.004055   0.000005   0.000001
    21  H    0.004059   0.004268   0.633989   0.006057   0.004184   0.000014
    22  H    0.000014   0.004055   0.006057   0.631537   0.004338   0.004586
    23  H    0.000001   0.000005   0.004184   0.004338   0.631658   0.005978
    24  H   -0.000000   0.000001   0.000014   0.004586   0.005978   0.601462
    25  H   -0.000000   0.000000  -0.000008   0.000025  -0.008094  -0.042376
    26  H    0.000000  -0.000000   0.000000  -0.000000   0.000000   0.000000
              25         26
     1  C    0.000000   0.369505
     2  C    0.000000  -0.020432
     3  C    0.000000   0.004036
     4  C    0.000000  -0.000224
     5  C   -0.000000   0.000003
     6  C    0.000000  -0.000000
     7  C   -0.000000   0.000000
     8  C    0.000003  -0.000000
     9  C   -0.000224   0.000000
    10  C    0.004034   0.000000
    11  C   -0.020437   0.000000
    12  C    0.369509   0.000000
    13  H    0.000000  -0.042377
    14  H    0.000000  -0.008100
    15  H   -0.000000   0.000025
    16  H    0.000000  -0.000008
    17  H   -0.000000   0.000000
    18  H    0.000000  -0.000000
    19  H   -0.000000   0.000000
    20  H    0.000000  -0.000000
    21  H   -0.000008   0.000000
    22  H    0.000025  -0.000000
    23  H   -0.008094   0.000000
    24  H   -0.042376   0.000000
    25  H    0.602013   0.000000
    26  H    0.000000   0.602036
 Mulliken charges:
               1
     1  C   -0.251797
     2  C   -0.033615
     3  C   -0.077702
     4  C   -0.076755
     5  C   -0.080529
     6  C   -0.079051
     7  C   -0.079006
     8  C   -0.080558
     9  C   -0.076710
    10  C   -0.077707
    11  C   -0.033602
    12  C   -0.251773
    13  H    0.095646
    14  H    0.083870
    15  H    0.081770
    16  H    0.081168
    17  H    0.080805
    18  H    0.080561
    19  H    0.080584
    20  H    0.080793
    21  H    0.081193
    22  H    0.081774
    23  H    0.083889
    24  H    0.095661
    25  H    0.095555
    26  H    0.095536
 Sum of Mulliken charges =  -0.00000
 Mulliken charges with hydrogens summed into heavy atoms:
               1
     1  C   -0.060614
     2  C    0.050255
     3  C    0.004068
     4  C    0.004413
     5  C    0.000276
     6  C    0.001510
     7  C    0.001578
     8  C    0.000235
     9  C    0.004484
    10  C    0.004067
    11  C    0.050287
    12  C   -0.060558
 Electronic spatial extent (au):  <R**2>=           6055.7844
 Charge=             -0.0000 electrons
 Dipole moment (field-independent basis, Debye):
    X=             -0.0032    Y=              0.0005    Z=              0.0059  Tot=              0.0067
 Quadrupole moment (field-independent basis, Debye-Ang):
   XX=            -69.3251   YY=            -63.7900   ZZ=            -79.3800
   XY=             -0.8245   XZ=              0.0003   YZ=              0.0009
 Traceless Quadrupole moment (field-independent basis, Debye-Ang):
   XX=              1.5066   YY=              7.0417   ZZ=             -8.5483
   XY=             -0.8245   XZ=              0.0003   YZ=              0.0009
 Octapole moment (field-independent basis, Debye-Ang**2):
  XXX=             -0.1409  YYY=              0.0067  ZZZ=             -0.0165  XYY=              0.0047
  XXY=              0.0250  XXZ=              0.7232  XZZ=             -0.0025  YZZ=              0.0010
  YYZ=             -0.0021  XYZ=              0.2758
 Hexadecapole moment (field-independent basis, Debye-Ang**3):
 XXXX=          -7741.0514 YYYY=           -202.4743 ZZZZ=            -82.3846 XXXY=            -60.2113
 XXXZ=              0.0247 YYYX=              0.4172 YYYZ=              0.0019 ZZZX=             -0.0002
 ZZZY=              0.0008 XXYY=          -1258.9697 XXZZ=          -1527.4094 YYZZ=            -53.4236
 XXYZ=              0.0212 YYXZ=             -0.0002 ZZXY=             -0.3603
 N-N= 5.347669841911D+02 E-N=-2.146380320322D+03  KE= 4.610137521611D+02
 Calling FoFJK, ICntrl=      2127 FMM=F ISym2X=0 I1Cent= 0 IOpClX= 0 NMat=1 NMatS=1 NMatT=0.
 ***** Axes restored to original set *****
 -------------------------------------------------------------------
 Center     Atomic                   Forces (Hartrees/Bohr)
 Number     Number              X              Y              Z
 -------------------------------------------------------------------
      1        6          -0.008641100    0.003364574   -0.000080387
      2        6           0.021127447    0.000310345   -0.013133550
      3        6          -0.029715640    0.004897674    0.010167441
      4        6           0.033376751   -0.006184067   -0.010375480
      5        6          -0.034327057    0.007386559    0.009149063
      6        6           0.034967112   -0.007588516   -0.009268621
      7        6          -0.034944265    0.007626581    0.009289445
      8        6           0.034302756   -0.007484067   -0.009168942
      9        6          -0.033329394    0.006317198    0.010412673
     10        6           0.029681911   -0.005027672   -0.010186919
     11        6          -0.021148313   -0.000302968    0.013089001
     12        6           0.008592999   -0.003455850    0.000037554
     13        1          -0.002070701    0.001172519   -0.000563991
     14        1           0.003912789   -0.002924857    0.002241409
     15        1          -0.002881418    0.001702112   -0.000883305
     16        1           0.002643126   -0.001600028    0.000928328
     17        1          -0.002660495    0.001624135   -0.000863904
     18        1           0.002658275   -0.001605281    0.000915253
     19        1          -0.002642143    0.001646513   -0.000885183
     20        1           0.002663192   -0.001601095    0.000881655
     21        1          -0.002616204    0.001651088   -0.000895836
     22        1           0.002873062   -0.001704455    0.000881491
     23        1          -0.003862196    0.003018263   -0.002193135
     24        1           0.002068264   -0.001178405    0.000553354
     25        1          -0.000043703   -0.002473131    0.003728112
     26        1           0.000014944    0.002412829   -0.003775522
 -------------------------------------------------------------------
 Cartesian Forces:  Max     0.034967112 RMS     0.012147796

 GradGradGradGradGradGradGradGradGradGradGradGradGradGradGradGradGradGrad
 Berny optimization.
 FormGI is forming the generalized inverse of G from B-inverse, IUseBI=4.
 Internal  Forces:  Max     0.020507971 RMS     0.007457851
 Search for a local minimum.
 Step number   1 out of a maximum of  115
 All quantities printed in internal units (Hartrees-Bohrs-Radians)
 Mixed Optimization -- RFO/linear search
 Second derivative matrix not updated -- first step.
 ITU=  0
     Eigenvalues ---    0.01060   0.01060   0.01060   0.01066   0.01067
     Eigenvalues ---    0.01978   0.01978   0.01978   0.01978   0.01978
     Eigenvalues ---    0.01978   0.01982   0.01982   0.01998   0.01999
     Eigenvalues ---    0.02887   0.02887   0.02888   0.02888   0.02948
     Eigenvalues ---    0.02948   0.02949   0.02949   0.16000   0.16000
     Eigenvalues ---    0.16000   0.16000   0.16000   0.16000   0.16000
     Eigenvalues ---    0.16000   0.16000   0.16000   0.16000   0.16000
     Eigenvalues ---    0.16000   0.16000   0.22000   0.22000   0.22000
     Eigenvalues ---    0.22000   0.22000   0.22000   0.22000   0.22000
     Eigenvalues ---    0.22000   0.22000   0.34823   0.34825   0.34826
     Eigenvalues ---    0.34880   0.34884   0.35080   0.35081   0.35081
     Eigenvalues ---    0.35082   0.35083   0.35084   0.35084   0.35084
     Eigenvalues ---    0.35192   0.35193   0.35272   0.35273   0.35371
     Eigenvalues ---    0.35372   0.57287   0.57289   0.57298   0.57304
     Eigenvalues ---    0.58337   0.58341
 RFO step:  Lambda=-1.84988113D-02 EMin= 1.05961857D-02
 Linear search not attempted -- first point.
 Iteration  1 RMS(Cart)=  0.06217781 RMS(Int)=  0.00049523
 Iteration  2 RMS(Cart)=  0.00140829 RMS(Int)=  0.00000568
 Iteration  3 RMS(Cart)=  0.00000020 RMS(Int)=  0.00000568
 Variable       Old X    -DE/DX   Delta X   Delta X   Delta X     New X
                                 (Linear)    (Quad)   (Total)
    R1        2.52277   0.01183   0.00000   0.01965   0.01965   2.54243
    R2        2.05233  -0.00018   0.00000  -0.00049  -0.00049   2.05184
    R3        2.05077   0.00017   0.00000   0.00045   0.00045   2.05122
    R4        2.79171  -0.01410   0.00000  -0.03839  -0.03839   2.75332
    R5        2.05364   0.00063   0.00000   0.00169   0.00169   2.05534
    R6        2.53140   0.01858   0.00000   0.03140   0.03140   2.56280
    R7        2.05544  -0.00025   0.00000  -0.00067  -0.00067   2.05477
    R8        2.79264  -0.01770   0.00000  -0.04827  -0.04827   2.74436
    R9        2.05543  -0.00012   0.00000  -0.00033  -0.00033   2.05510
   R10        2.53152   0.02051   0.00000   0.03468   0.03468   2.56620
   R11        2.05539  -0.00018   0.00000  -0.00048  -0.00048   2.05492
   R12        2.79259  -0.01836   0.00000  -0.05006  -0.05006   2.74253
   R13        2.05539  -0.00014   0.00000  -0.00038  -0.00038   2.05501
   R14        2.53154   0.02050   0.00000   0.03466   0.03466   2.56620
   R15        2.05539  -0.00015   0.00000  -0.00039  -0.00039   2.05500
   R16        2.79259  -0.01769   0.00000  -0.04824  -0.04824   2.74434
   R17        2.05540  -0.00017   0.00000  -0.00047  -0.00047   2.05493
   R18        2.53145   0.01855   0.00000   0.03136   0.03136   2.56281
   R19        2.05542  -0.00012   0.00000  -0.00034  -0.00034   2.05509
   R20        2.79164  -0.01409   0.00000  -0.03835  -0.03835   2.75330
   R21        2.05545  -0.00025   0.00000  -0.00068  -0.00068   2.05477
   R22        2.52281   0.01181   0.00000   0.01962   0.01962   2.54243
   R23        2.05362   0.00063   0.00000   0.00171   0.00171   2.05533
   R24        2.05236  -0.00019   0.00000  -0.00052  -0.00052   2.05184
   R25        2.05075   0.00018   0.00000   0.00047   0.00047   2.05122
    A1        2.11475   0.00028   0.00000   0.00154   0.00154   2.11629
    A2        2.09380   0.00445   0.00000   0.02495   0.02495   2.11875
    A3        2.07463  -0.00473   0.00000  -0.02649  -0.02649   2.04814
    A4        2.11404   0.01181   0.00000   0.04951   0.04951   2.16354
    A5        2.07619  -0.00042   0.00000   0.00595   0.00595   2.08214
    A6        2.09296  -0.01138   0.00000  -0.05546  -0.05546   2.03750
    A7        2.11028   0.01219   0.00000   0.05112   0.05112   2.16140
    A8        2.08157  -0.00964   0.00000  -0.04544  -0.04544   2.03614
    A9        2.09133  -0.00255   0.00000  -0.00568  -0.00568   2.08565
   A10        2.11107   0.01263   0.00000   0.05297   0.05297   2.16404
   A11        2.09032  -0.00300   0.00000  -0.00792  -0.00792   2.08239
   A12        2.08180  -0.00963   0.00000  -0.04505  -0.04505   2.03675
   A13        2.11051   0.01248   0.00000   0.05233   0.05233   2.16284
   A14        2.08196  -0.00956   0.00000  -0.04476  -0.04476   2.03720
   A15        2.09071  -0.00292   0.00000  -0.00757  -0.00757   2.08315
   A16        2.11113   0.01251   0.00000   0.05247   0.05247   2.16360
   A17        2.09044  -0.00293   0.00000  -0.00761  -0.00761   2.08283
   A18        2.08161  -0.00958   0.00000  -0.04486  -0.04486   2.03675
   A19        2.11046   0.01261   0.00000   0.05287   0.05287   2.16334
   A20        2.08199  -0.00963   0.00000  -0.04505  -0.04505   2.03693
   A21        2.09073  -0.00298   0.00000  -0.00782  -0.00782   2.08291
   A22        2.11111   0.01239   0.00000   0.05196   0.05196   2.16307
   A23        2.09047  -0.00288   0.00000  -0.00741  -0.00741   2.08306
   A24        2.08160  -0.00951   0.00000  -0.04455  -0.04455   2.03705
   A25        2.11059   0.01270   0.00000   0.05325   0.05325   2.16384
   A26        2.08205  -0.00966   0.00000  -0.04515  -0.04515   2.03690
   A27        2.09054  -0.00304   0.00000  -0.00809  -0.00809   2.08245
   A28        2.11062   0.01214   0.00000   0.05091   0.05091   2.16153
   A29        2.09121  -0.00253   0.00000  -0.00562  -0.00562   2.08559
   A30        2.08136  -0.00961   0.00000  -0.04530  -0.04530   2.03606
   A31        2.11387   0.01183   0.00000   0.04959   0.04959   2.16346
   A32        2.09304  -0.01139   0.00000  -0.05547  -0.05547   2.03757
   A33        2.07628  -0.00044   0.00000   0.00588   0.00588   2.08216
   A34        2.11472   0.00028   0.00000   0.00155   0.00155   2.11628
   A35        2.09388   0.00445   0.00000   0.02491   0.02491   2.11879
   A36        2.07458  -0.00472   0.00000  -0.02646  -0.02646   2.04812
    D1       -0.00015  -0.00001   0.00000  -0.00008  -0.00008  -0.00023
    D2       -3.14104  -0.00002   0.00000  -0.00048  -0.00049  -3.14153
    D3        3.14105   0.00001   0.00000   0.00027   0.00027   3.14132
    D4        0.00015  -0.00000   0.00000  -0.00013  -0.00014   0.00002
    D5       -3.13871  -0.00004   0.00000  -0.00109  -0.00109  -3.13980
    D6        0.00152  -0.00000   0.00000  -0.00022  -0.00022   0.00130
    D7        0.00218  -0.00002   0.00000  -0.00067  -0.00067   0.00151
    D8       -3.14078   0.00001   0.00000   0.00020   0.00020  -3.14058
    D9        3.13954   0.00003   0.00000   0.00094   0.00095   3.14048
   D10       -0.00018  -0.00001   0.00000  -0.00018  -0.00018  -0.00036
   D11       -0.00069   0.00000   0.00000   0.00009   0.00009  -0.00060
   D12       -3.14040  -0.00004   0.00000  -0.00102  -0.00103  -3.14144
   D13       -3.13558  -0.00008   0.00000  -0.00235  -0.00233  -3.13792
   D14        0.00363  -0.00002   0.00000  -0.00084  -0.00084   0.00279
   D15        0.00414  -0.00004   0.00000  -0.00120  -0.00120   0.00294
   D16       -3.13983   0.00003   0.00000   0.00031   0.00030  -3.13953
   D17        3.13833   0.00006   0.00000   0.00153   0.00155   3.13987
   D18       -0.00066  -0.00000   0.00000  -0.00004  -0.00004  -0.00070
   D19       -0.00088   0.00000   0.00000   0.00006   0.00006  -0.00081
   D20       -3.13986  -0.00006   0.00000  -0.00151  -0.00153  -3.14139
   D21       -3.13430  -0.00010   0.00000  -0.00286  -0.00285  -3.13715
   D22        0.00471  -0.00004   0.00000  -0.00125  -0.00125   0.00346
   D23        0.00470  -0.00004   0.00000  -0.00124  -0.00124   0.00345
   D24       -3.13948   0.00003   0.00000   0.00037   0.00035  -3.13913
   D25        3.13835   0.00006   0.00000   0.00152   0.00154   3.13989
   D26       -0.00088   0.00000   0.00000   0.00007   0.00007  -0.00081
   D27       -0.00065  -0.00000   0.00000  -0.00005  -0.00005  -0.00069
   D28       -3.13987  -0.00006   0.00000  -0.00150  -0.00152  -3.14139
   D29       -3.13569  -0.00008   0.00000  -0.00231  -0.00229  -3.13798
   D30        0.00407  -0.00004   0.00000  -0.00118  -0.00118   0.00289
   D31        0.00355  -0.00002   0.00000  -0.00081  -0.00081   0.00274
   D32       -3.13988   0.00003   0.00000   0.00031   0.00030  -3.13958
   D33        3.13958   0.00003   0.00000   0.00092   0.00093   3.14051
   D34       -0.00068   0.00000   0.00000   0.00009   0.00009  -0.00059
   D35       -0.00017  -0.00001   0.00000  -0.00018  -0.00018  -0.00035
   D36       -3.14043  -0.00004   0.00000  -0.00100  -0.00101  -3.14144
   D37       -3.13880  -0.00004   0.00000  -0.00106  -0.00105  -3.13986
   D38        0.00211  -0.00002   0.00000  -0.00065  -0.00065   0.00146
   D39        0.00146  -0.00000   0.00000  -0.00021  -0.00021   0.00125
   D40       -3.14082   0.00001   0.00000   0.00020   0.00020  -3.14062
   D41       -0.00015  -0.00001   0.00000  -0.00008  -0.00008  -0.00022
   D42        3.14106   0.00001   0.00000   0.00026   0.00026   3.14133
   D43       -3.14106  -0.00002   0.00000  -0.00047  -0.00047  -3.14153
   D44        0.00015  -0.00000   0.00000  -0.00013  -0.00013   0.00002
         Item               Value     Threshold  Converged?
 Maximum Force            0.020508     0.000450     NO 
 RMS     Force            0.007458     0.000300     NO 
 Maximum Displacement     0.195259     0.001800     NO 
 RMS     Displacement     0.061015     0.001200     NO 
 Predicted change in Energy=-9.874294D-03
 GradGradGradGradGradGradGradGradGradGradGradGradGradGradGradGradGradGrad

                          Input orientation:                          
 ---------------------------------------------------------------------
 Center     Atomic      Atomic             Coordinates (Angstroms)
 Number     Number       Type             X           Y           Z
 ---------------------------------------------------------------------
      1          6           0       14.984910   -5.079196   -1.699400
      2          6           0       15.611497   -5.886278   -0.824131
      3          6           0       16.992433   -6.327795   -0.968715
      4          6           0       17.621008   -7.143070   -0.085858
      5          6           0       18.996738   -7.586208   -0.227408
      6          6           0       19.623505   -8.405927    0.655382
      7          6           0       20.997584   -8.850999    0.513799
      8          6           0       21.622496   -9.674714    1.394185
      9          6           0       22.996875  -10.121507    1.251101
     10          6           0       23.620561  -10.947316    2.127619
     11          6           0       24.999287  -11.394836    1.980536
     12          6           0       25.619559  -12.215511    2.847628
     13          1           0       15.492139   -4.705171   -2.583569
     14          1           0       15.072918   -6.242473    0.051091
     15          1           0       17.529961   -5.970166   -1.843623
     16          1           0       17.080477   -7.499087    0.788074
     17          1           0       19.538237   -7.228874   -1.100083
     18          1           0       19.081641   -8.763255    1.527897
     19          1           0       21.540348   -8.491869   -0.357406
     20          1           0       21.079824  -10.034066    2.265308
     21          1           0       23.540065   -9.760487    0.380885
     22          1           0       23.080174  -11.310145    2.998620
     23          1           0       25.541444  -11.031999    1.110268
     24          1           0       25.108561  -12.596537    3.726623
     25          1           0       26.649564  -12.523158    2.697073
     26          1           0       13.953330   -4.776031   -1.550551
 ---------------------------------------------------------------------
                    Distance matrix (angstroms):
                    1          2          3          4          5
     1  C    0.000000
     2  C    1.345395   0.000000
     3  C    2.474480   1.456992   0.000000
     4  C    3.716464   2.482480   1.356177   0.000000
     5  C    4.954456   3.834801   2.479995   1.452254   0.000000
     6  C    6.174844   4.963245   3.725434   2.480774   1.357975
     7  C    7.434850   6.292024   4.960407   3.831172   2.480418
     8  C    8.645612   7.443473   6.182447   4.961014   3.726397
     9  C    9.915742   8.762851   7.441314   6.289555   4.961334
    10  C   11.120044   9.923308   8.652129   7.440861   6.182471
    11  C   12.398266  11.240150   9.923845   8.762791   7.443874
    12  C   13.590373  12.397674  11.120116   9.915232   8.645696
    13  H    1.085785   2.122471   2.737069   4.088275   5.112150
    14  H    2.103611   1.087638   2.175275   2.706029   4.156867
    15  H    2.700354   2.174145   1.087336   2.115120   2.715728
    16  H    4.053986   2.712612   2.113288   1.087510   2.170449
    17  H    5.070807   4.159087   2.703760   2.170664   1.087414
    18  H    6.385213   5.084381   4.065627   2.713421   2.115123
    19  H    7.511395   6.492936   5.073504   4.153820   2.703160
    20  H    8.798729   7.526711   6.395476   5.084216   4.067541
    21  H    9.971597   8.906388   7.515070   6.488757   5.073395
    22  H   11.244084   9.990640   8.810457   7.528679   6.399173
    23  H   12.440680  11.350075   9.976838   8.904370   7.516385
    24  H   13.727362  12.487240  11.278956  10.016924   8.836976
    25  H   14.519149  13.352377  12.044945  10.872207   9.565135
    26  H    1.085460   2.123641   3.461597   4.604353   5.923155
                    6          7          8          9         10
     6  C    0.000000
     7  C    1.451285   0.000000
     8  C    2.480246   1.357977   0.000000
     9  C    3.831152   2.480921   1.452244   0.000000
    10  C    4.960101   3.725449   2.479860   1.356181   0.000000
    11  C    6.291951   4.963472   3.834755   2.482558   1.456981
    12  C    7.434484   6.174897   4.954257   3.716480   2.474414
    13  H    6.422973   7.555892   8.837430  10.018107  11.279668
    14  H    5.074794   6.490006   7.515395   8.903708   9.975456
    15  H    4.069507   5.087343   6.399682   7.529815   8.811254
    16  H    2.703138   4.152905   5.072540   6.488085   7.513811
    17  H    2.115274   2.713964   4.067879   5.085034   6.396111
    18  H    1.087465   2.169546   2.702699   4.153375   5.072631
    19  H    2.169658   1.087458   2.115170   2.713759   4.065938
    20  H    2.713589   2.115229   1.087420   2.170564   2.703392
    21  H    4.153267   2.703525   2.170531   1.087505   2.113320
    22  H    5.086630   4.069265   2.715450   2.115094   1.087340
    23  H    6.490392   5.075352   4.157040   2.706226   2.175308
    24  H    7.555103   6.422727   5.111748   4.088178   2.736949
    25  H    8.395570   7.084936   5.923053   4.604443   3.461562
    26  H    7.084714   8.395739   9.564763  10.872400  12.044462
                   11         12         13         14         15
    11  C    0.000000
    12  C    1.345398   0.000000
    13  H   12.488737  13.728356   0.000000
    14  H   11.349115  12.439029   3.079038   0.000000
    15  H    9.992101  11.245167   2.510070   3.114667   0.000000
    16  H    8.905413   9.970072   4.657979   2.480427   3.076600
    17  H    7.527850   8.799628   4.994069   4.715640   2.484024
    18  H    6.492198   7.510269   6.801230   4.960359   4.645020
    19  H    5.085022   6.385744   7.475006   6.859614   4.964981
    20  H    4.158724   5.070207   9.117618   7.440555   6.782340
    21  H    2.712805   4.054166   9.955568   9.174844   7.445558
    22  H    2.174090   2.700179  11.504990   9.923980   9.097668
    23  H    1.087635   2.103621  12.436307  11.560772   9.926303
    24  H    2.122463   1.085786  13.948755  12.433736  11.505287
    25  H    2.123664   1.085459  14.611442  13.433799  12.113084
    26  H   13.352540  14.518635   1.854745   2.443192   3.782081
                   16         17         18         19         20
    16  H    0.000000
    17  H    3.111067   0.000000
    18  H    2.479942   3.077187   0.000000
    19  H    4.710434   2.480962   3.110186   0.000000
    20  H    4.960152   4.644508   2.480216   3.077188   0.000000
    21  H    6.856093   4.961548   4.710377   2.480592   3.111058
    22  H    7.443590   6.782437   4.963662   4.645068   2.483450
    23  H    9.174597   7.442305   6.859349   4.961361   4.715511
    24  H    9.953351   9.117971   7.473434   6.801451   4.993237
    25  H   10.975107   9.644626   8.530961   7.189244   6.115881
    26  H    4.760594   6.116417   7.188489   8.531934   9.643373
                   21         22         23         24         25
    21  H    0.000000
    22  H    3.076602   0.000000
    23  H    2.480778   3.114658   0.000000
    24  H    4.658039   2.509810   3.079039   0.000000
    25  H    4.760889   3.781914   2.443243   1.854736   0.000000
    26  H   10.976372  12.111519  13.435084  14.609862  15.467859
                   26
    26  H    0.000000
 Stoichiometry    C12H14
 Framework group  C1[X(C12H14)]
 Deg. of freedom    72
 Full point group                 C1      NOp   1
 Largest Abelian subgroup         C1      NOp   1
 Largest concise Abelian subgroup C1      NOp   1
                         Standard orientation:                         
 ---------------------------------------------------------------------
 Center     Atomic      Atomic             Coordinates (Angstroms)
 Number     Number       Type             X           Y           Z
 ---------------------------------------------------------------------
      1          6           0        6.791239    0.234151    0.013399
      2          6           0        5.605584   -0.401645    0.004835
      3          6           0        4.317189    0.278690    0.001450
      4          6           0        3.123398   -0.364765   -0.005165
      5          6           0        1.837407    0.309967   -0.007221
      6          6           0        0.642797   -0.335786   -0.009704
      7          6           0       -0.642857    0.337506   -0.009690
      8          6           0       -1.837297   -0.308564   -0.007167
      9          6           0       -3.123615    0.365525   -0.005098
     10          6           0       -4.316963   -0.278762    0.001485
     11          6           0       -5.605907    0.400506    0.004860
     12          6           0       -6.790986   -0.236371    0.013327
     13          1           0        6.849046    1.318386    0.018152
     14          1           0        5.584798   -1.489074    0.000314
     15          1           0        4.339459    1.365792    0.004994
     16          1           0        3.104662   -1.452108   -0.008549
     17          1           0        1.855658    1.397228   -0.005840
     18          1           0        0.624890   -1.423103   -0.010893
     19          1           0       -0.625146    1.424820   -0.010895
     20          1           0       -1.855170   -1.395836   -0.005771
     21          1           0       -3.105578    1.452876   -0.008453
     22          1           0       -4.338416   -1.365884    0.004998
     23          1           0       -5.586092    1.487951    0.000409
     24          1           0       -6.847785   -1.320660    0.018007
     25          1           0       -7.727701    0.312064    0.015793
     26          1           0        7.727435   -0.315171    0.015875
 ---------------------------------------------------------------------
 Rotational constants (GHZ):          12.8003444           0.1697993           0.1675775
 Standard basis: 6-31G(d,p) (6D, 7F)
 There are   250 symmetry adapted cartesian basis functions of A   symmetry.
 There are   250 symmetry adapted basis functions of A   symmetry.
   250 basis functions,   434 primitive gaussians,   250 cartesian basis functions
    43 alpha electrons       43 beta electrons
       nuclear repulsion energy       531.8204803390 Hartrees.
 NAtoms=   26 NActive=   26 NUniq=   26 SFac= 1.00D+00 NAtFMM=   60 NAOKFM=F Big=F
 Integral buffers will be    131072 words long.
 Raffenetti 2 integral format.
 Two-electron integral symmetry is turned on.
 One-electron integrals computed using PRISM.
 NBasis=   250 RedAO= T EigKep=  1.42D-03  NBF=   250
 NBsUse=   250 1.00D-06 EigRej= -1.00D+00 NBFU=   250
 Initial guess from the checkpoint file:  "./chk/6.chk"
 B after Tr=    -0.000000    0.000000   -0.000000
         Rot=    1.000000    0.000032    0.000000    0.000628 Ang=   0.07 deg.
 ExpMin= 1.61D-01 ExpMax= 3.05D+03 ExpMxC= 4.57D+02 IAcc=3 IRadAn=         5 AccDes= 0.00D+00
 Harris functional with IExCor=  402 and IRadAn=       5 diagonalized for initial guess.
 HarFok:  IExCor=  402 AccDes= 0.00D+00 IRadAn=         5 IDoV= 1 UseB2=F ITyADJ=14
 ICtDFT=  3500011 ScaDFX=  1.000000  1.000000  1.000000  1.000000
 FoFCou: FMM=F IPFlag=           0 FMFlag=      100000 FMFlg1=           0
         NFxFlg=           0 DoJE=T BraDBF=F KetDBF=T FulRan=T
         wScrn=  0.000000 ICntrl=       500 IOpCl=  0 I1Cent=   200000004 NGrid=           0
         NMat0=    1 NMatS0=      1 NMatT0=    0 NMatD0=    1 NMtDS0=    0 NMtDT0=    0
 Petite list used in FoFCou.
 Requested convergence on RMS density matrix=1.00D-08 within 128 cycles.
 Requested convergence on MAX density matrix=1.00D-06.
 Requested convergence on             energy=1.00D-06.
 No special actions if energy rises.
 Integral accuracy reduced to 1.0D-05 until final iterations.
 Initial convergence to 1.0D-05 achieved.  Increase integral accuracy.
 SCF Done:  E(RB3LYP) =  -465.642176148     A.U. after   12 cycles
            NFock= 12  Conv=0.75D-08     -V/T= 2.0103
 Calling FoFJK, ICntrl=      2127 FMM=F ISym2X=0 I1Cent= 0 IOpClX= 0 NMat=1 NMatS=1 NMatT=0.
 ***** Axes restored to original set *****
 -------------------------------------------------------------------
 Center     Atomic                   Forces (Hartrees/Bohr)
 Number     Number              X              Y              Z
 -------------------------------------------------------------------
      1        6          -0.000076404   -0.001875990    0.002979164
      2        6           0.006023365    0.000542997   -0.004453889
      3        6          -0.008255728    0.000451238    0.004280723
      4        6           0.010741760   -0.001535968   -0.004060936
      5        6          -0.011226258    0.002205384    0.003363139
      6        6           0.011725477   -0.002396212   -0.003323866
      7        6          -0.011716176    0.002415101    0.003342208
      8        6           0.011231970   -0.002193929   -0.003344840
      9        6          -0.010735140    0.001549378    0.004068278
     10        6           0.008267119   -0.000428748   -0.004257068
     11        6          -0.006030036   -0.000558500    0.004439153
     12        6           0.000103228    0.001928178   -0.002944032
     13        1          -0.000292774    0.000531016   -0.000647049
     14        1          -0.000284451   -0.000634699    0.001139667
     15        1           0.001189350    0.000261192   -0.001129057
     16        1          -0.001271428   -0.000242211    0.001101291
     17        1           0.001270352    0.000179803   -0.001070617
     18        1          -0.001314097   -0.000203078    0.001054950
     19        1           0.001298384    0.000171572   -0.001080213
     20        1          -0.001284029   -0.000206544    0.001048456
     21        1           0.001260559    0.000219975   -0.001118775
     22        1          -0.001196571   -0.000274411    0.001117213
     23        1           0.000284385    0.000635146   -0.001140950
     24        1           0.000288655   -0.000539494    0.000641512
     25        1          -0.000541057   -0.000277209    0.000743712
     26        1           0.000539544    0.000276013   -0.000748175
 -------------------------------------------------------------------
 Cartesian Forces:  Max     0.011725477 RMS     0.003925415

 GradGradGradGradGradGradGradGradGradGradGradGradGradGradGradGradGradGrad
 Berny optimization.
 Using GEDIIS/GDIIS optimizer.
 FormGI is forming the generalized inverse of G from B-inverse, IUseBI=4.
 Internal  Forces:  Max     0.009198823 RMS     0.001886584
 Search for a local minimum.
 Step number   2 out of a maximum of  115
 All quantities printed in internal units (Hartrees-Bohrs-Radians)
 Mixed Optimization -- RFO/linear search
 Update second derivatives using D2CorX and points    1    2
 DE= -1.05D-02 DEPred=-9.87D-03 R= 1.06D+00
 TightC=F SS=  1.41D+00  RLast= 2.60D-01 DXNew= 5.0454D-01 7.7976D-01
 Trust test= 1.06D+00 RLast= 2.60D-01 DXMaxT set to 5.05D-01
 ITU=  1  0
 Use linear search instead of GDIIS.
     Eigenvalues ---    0.01060   0.01060   0.01060   0.01066   0.01067
     Eigenvalues ---    0.01996   0.01996   0.01996   0.01996   0.01996
     Eigenvalues ---    0.01996   0.02001   0.02001   0.02030   0.02030
     Eigenvalues ---    0.02887   0.02887   0.02888   0.02888   0.02948
     Eigenvalues ---    0.02948   0.02949   0.02949   0.15757   0.16000
     Eigenvalues ---    0.16000   0.16000   0.16000   0.16000   0.16000
     Eigenvalues ---    0.16000   0.16000   0.16000   0.16000   0.16000
     Eigenvalues ---    0.16000   0.16618   0.20931   0.22000   0.22000
     Eigenvalues ---    0.22000   0.22000   0.22000   0.22000   0.22000
     Eigenvalues ---    0.22000   0.22041   0.31285   0.34824   0.34826
     Eigenvalues ---    0.34870   0.34882   0.35080   0.35081   0.35082
     Eigenvalues ---    0.35082   0.35083   0.35084   0.35084   0.35178
     Eigenvalues ---    0.35193   0.35257   0.35273   0.35335   0.35372
     Eigenvalues ---    0.35422   0.57264   0.57288   0.57301   0.57827
     Eigenvalues ---    0.58339   0.60582
 RFO step:  Lambda=-1.02319691D-03 EMin= 1.05961442D-02
 Quartic linear search produced a step of  0.16196.
 Iteration  1 RMS(Cart)=  0.01635301 RMS(Int)=  0.00004073
 Iteration  2 RMS(Cart)=  0.00012356 RMS(Int)=  0.00000038
 Iteration  3 RMS(Cart)=  0.00000000 RMS(Int)=  0.00000038
 Variable       Old X    -DE/DX   Delta X   Delta X   Delta X     New X
                                 (Linear)    (Quad)   (Total)
    R1        2.54243  -0.00175   0.00318  -0.00563  -0.00245   2.53998
    R2        2.05184   0.00057  -0.00008   0.00194   0.00186   2.05369
    R3        2.05122  -0.00054   0.00007  -0.00181  -0.00174   2.04948
    R4        2.75332  -0.00612  -0.00622  -0.01602  -0.02224   2.73107
    R5        2.05534   0.00127   0.00027   0.00398   0.00425   2.05959
    R6        2.56280  -0.00066   0.00509  -0.00477   0.00031   2.56311
    R7        2.05477   0.00158  -0.00011   0.00530   0.00519   2.05996
    R8        2.74436  -0.00870  -0.00782  -0.02353  -0.03135   2.71301
    R9        2.05510   0.00160  -0.00005   0.00531   0.00525   2.06035
   R10        2.56620   0.00036   0.00562  -0.00306   0.00255   2.56875
   R11        2.05492   0.00155  -0.00008   0.00517   0.00510   2.06001
   R12        2.74253  -0.00920  -0.00811  -0.02497  -0.03308   2.70945
   R13        2.05501   0.00157  -0.00006   0.00522   0.00516   2.06017
   R14        2.56620   0.00036   0.00561  -0.00306   0.00255   2.56875
   R15        2.05500   0.00157  -0.00006   0.00523   0.00516   2.06016
   R16        2.74434  -0.00870  -0.00781  -0.02352  -0.03133   2.71301
   R17        2.05493   0.00155  -0.00008   0.00517   0.00509   2.06002
   R18        2.56281  -0.00066   0.00508  -0.00477   0.00031   2.56312
   R19        2.05509   0.00160  -0.00005   0.00531   0.00526   2.06035
   R20        2.75330  -0.00612  -0.00621  -0.01601  -0.02222   2.73108
   R21        2.05477   0.00158  -0.00011   0.00530   0.00519   2.05996
   R22        2.54243  -0.00175   0.00318  -0.00563  -0.00245   2.53998
   R23        2.05533   0.00127   0.00028   0.00398   0.00425   2.05959
   R24        2.05184   0.00057  -0.00008   0.00194   0.00186   2.05369
   R25        2.05122  -0.00054   0.00008  -0.00182  -0.00174   2.04948
    A1        2.11629   0.00038   0.00025   0.00255   0.00280   2.11910
    A2        2.11875   0.00063   0.00404   0.00153   0.00557   2.12432
    A3        2.04814  -0.00101  -0.00429  -0.00408  -0.00837   2.03977
    A4        2.16354   0.00145   0.00802   0.00186   0.00988   2.17343
    A5        2.08214  -0.00029   0.00096  -0.00149  -0.00053   2.08161
    A6        2.03750  -0.00116  -0.00898  -0.00037  -0.00935   2.02815
    A7        2.16140   0.00103   0.00828  -0.00052   0.00776   2.16916
    A8        2.03614   0.00000  -0.00736   0.00640  -0.00096   2.03517
    A9        2.08565  -0.00103  -0.00092  -0.00587  -0.00679   2.07885
   A10        2.16404   0.00124   0.00858   0.00035   0.00893   2.17297
   A11        2.08239  -0.00122  -0.00128  -0.00674  -0.00802   2.07437
   A12        2.03675  -0.00002  -0.00730   0.00639  -0.00091   2.03584
   A13        2.16284   0.00108   0.00847  -0.00044   0.00804   2.17087
   A14        2.03720   0.00010  -0.00725   0.00708  -0.00017   2.03703
   A15        2.08315  -0.00118  -0.00123  -0.00664  -0.00786   2.07528
   A16        2.16360   0.00109   0.00850  -0.00037   0.00812   2.17173
   A17        2.08283  -0.00121  -0.00123  -0.00688  -0.00811   2.07472
   A18        2.03675   0.00012  -0.00726   0.00725  -0.00001   2.03674
   A19        2.16334   0.00113   0.00856  -0.00024   0.00832   2.17166
   A20        2.03693   0.00010  -0.00730   0.00715  -0.00014   2.03679
   A21        2.08291  -0.00123  -0.00127  -0.00691  -0.00818   2.07473
   A22        2.16307   0.00105   0.00841  -0.00055   0.00786   2.17093
   A23        2.08306  -0.00117  -0.00120  -0.00660  -0.00780   2.07526
   A24        2.03705   0.00012  -0.00721   0.00716  -0.00006   2.03700
   A25        2.16384   0.00127   0.00862   0.00046   0.00908   2.17292
   A26        2.03690  -0.00004  -0.00731   0.00630  -0.00101   2.03589
   A27        2.08245  -0.00123  -0.00131  -0.00676  -0.00807   2.07438
   A28        2.16153   0.00102   0.00825  -0.00058   0.00766   2.16919
   A29        2.08559  -0.00103  -0.00091  -0.00585  -0.00676   2.07883
   A30        2.03606   0.00001  -0.00734   0.00643  -0.00090   2.03516
   A31        2.16346   0.00146   0.00803   0.00191   0.00994   2.17340
   A32        2.03757  -0.00117  -0.00898  -0.00041  -0.00940   2.02817
   A33        2.08216  -0.00029   0.00095  -0.00150  -0.00055   2.08161
   A34        2.11628   0.00038   0.00025   0.00256   0.00282   2.11909
   A35        2.11879   0.00063   0.00403   0.00151   0.00554   2.12433
   A36        2.04812  -0.00101  -0.00428  -0.00407  -0.00836   2.03977
    D1       -0.00023   0.00000  -0.00001   0.00014   0.00012  -0.00011
    D2       -3.14153  -0.00000  -0.00008  -0.00005  -0.00013   3.14153
    D3        3.14132   0.00000   0.00004   0.00014   0.00018   3.14150
    D4        0.00002  -0.00000  -0.00002  -0.00005  -0.00007  -0.00005
    D5       -3.13980  -0.00002  -0.00018  -0.00127  -0.00144  -3.14124
    D6        0.00130  -0.00001  -0.00004  -0.00089  -0.00092   0.00037
    D7        0.00151  -0.00001  -0.00011  -0.00109  -0.00120   0.00031
    D8       -3.14058  -0.00000   0.00003  -0.00071  -0.00067  -3.14126
    D9        3.14048   0.00002   0.00015   0.00069   0.00084   3.14133
   D10       -0.00036   0.00000  -0.00003   0.00012   0.00009  -0.00027
   D11       -0.00060   0.00001   0.00002   0.00029   0.00031  -0.00029
   D12       -3.14144  -0.00001  -0.00017  -0.00028  -0.00044   3.14130
   D13       -3.13792  -0.00004  -0.00038  -0.00291  -0.00329  -3.14121
   D14        0.00279  -0.00002  -0.00014  -0.00223  -0.00237   0.00042
   D15        0.00294  -0.00003  -0.00019  -0.00236  -0.00256   0.00039
   D16       -3.13953  -0.00001   0.00005  -0.00168  -0.00164  -3.14117
   D17        3.13987   0.00003   0.00025   0.00108   0.00133   3.14120
   D18       -0.00070   0.00001  -0.00001   0.00030   0.00029  -0.00041
   D19       -0.00081   0.00001   0.00001   0.00037   0.00038  -0.00043
   D20       -3.14139  -0.00001  -0.00025  -0.00041  -0.00066   3.14114
   D21       -3.13715  -0.00005  -0.00046  -0.00359  -0.00405  -3.14120
   D22        0.00346  -0.00003  -0.00020  -0.00284  -0.00304   0.00041
   D23        0.00345  -0.00003  -0.00020  -0.00284  -0.00304   0.00041
   D24       -3.13913  -0.00001   0.00006  -0.00209  -0.00203  -3.14116
   D25        3.13989   0.00003   0.00025   0.00107   0.00132   3.14120
   D26       -0.00081   0.00001   0.00001   0.00037   0.00038  -0.00043
   D27       -0.00069   0.00001  -0.00001   0.00029   0.00028  -0.00041
   D28       -3.14139  -0.00001  -0.00025  -0.00040  -0.00065   3.14114
   D29       -3.13798  -0.00004  -0.00037  -0.00286  -0.00323  -3.14121
   D30        0.00289  -0.00003  -0.00019  -0.00232  -0.00251   0.00038
   D31        0.00274  -0.00002  -0.00013  -0.00219  -0.00232   0.00042
   D32       -3.13958  -0.00001   0.00005  -0.00165  -0.00160  -3.14117
[...]
 0.00000940,0.00000554,0.00020198,-0.00045491,0.00115718,-0.00184264,0.
 00097650,-0.01282385,-0.01021424,0.02505547,-0.12531073,-0.03916863,0.
 11109092,0.01006300,0.00539866,-0.01139298,0.00038077,-0.00076871,-0.0
 0254932,0.00014279,-0.00005075,-0.00004857,-0.00002871,0.00005269,0.00
 007811,0.00002439,-0.00002850,0.00003653,0.00000029,0.00000363,-0.0000
 0313,0.00000333,-0.00000463,0.00000823,-0.00003358,0.00004039,-0.00003
 801,0.00028455,-0.00000348,-0.00009332,0.00003950,0.00078169,-0.001066
 79,-0.00409191,0.00278253,0.00066401,0.13042996,-0.00001503,-0.0000128
 9,0.00000420,-0.00000778,0.00003475,-0.00001392,-0.00002712,-0.0000484
 2,0.00006269,-0.00005812,-0.00008988,-0.00019309,-0.00018266,-0.000731
 20,-0.00170632,0.00541919,0.00550839,-0.00712837,-0.03858118,-0.074604
 50,0.07647649,-0.01030564,-0.00243549,0.01723910,-0.00290600,-0.003205
 64,-0.00229788,0.00021057,-0.00004242,-0.00016522,0.00007487,0.0001612
 9,0.00007024,-0.00000374,0.00001174,0.00000361,0.00000261,0.00000211,0
 .00000183,-0.00000398,0.00000401,0.00000431,0.00001086,-0.00000877,0.0
 0001619,-0.00000385,0.00002486,0.00014721,-0.00020213,0.00013587,0.000
 30070,0.00278258,0.00213217,0.00138794,0.03899097,0.06891507,0.0000517
 5,-0.00001196,-0.00002869,-0.00002196,-0.00002352,0.00007169,0.0000613
 9,0.00003501,-0.00010825,-0.00005732,-0.00034870,0.00032827,-0.0015608
 2,-0.00071335,0.00010485,0.00116085,0.00222173,-0.00112493,0.11019243,
 0.07682797,-0.22300047,0.01261057,0.00784635,-0.01472441,0.00071752,-0
 .00357611,-0.00080926,-0.00044793,-0.00000897,0.00021349,0.00004415,0.
 00008353,0.00008246,-0.00000129,0.00001840,-0.00001472,-0.00000158,0.0
 0000122,0.00000341,0.00000725,0.00000470,-0.00000624,0.00000712,-0.000
 00147,0.00000406,-0.00009271,0.00014698,-0.00004953,0.00043696,-0.0002
 8771,0.00043194,0.00066402,0.00138797,0.00161050,-0.12224621,-0.089402
 29,0.23544314,0.00000362,-0.00001108,0.00000979,-0.00002921,-0.0000093
 7,-0.00002451,0.00005145,-0.00003758,0.00004562,-0.00005527,0.00005898
 ,0.00007387,0.00016252,-0.00006532,-0.00005155,0.00037388,-0.00076855,
 -0.00252166,0.01009685,0.00541374,-0.01142878,-0.12515520,-0.03920201,
 0.11119217,-0.01274336,-0.01021969,0.02500967,0.00116859,-0.00181980,0
 .00099592,0.00001474,0.00019582,-0.00045633,-0.00008166,0.00005576,-0.
 00005584,-0.00000041,-0.00000256,-0.00000148,-0.00000169,0.00000180,0.
 00000081,0.00000608,0.00000072,0.00000684,-0.00003429,0.00001094,0.000
 00770,-0.00010177,0.00006365,0.00017391,0.00003950,-0.00020212,0.00043
 694,-0.00010492,0.00393855,-0.00058717,0.13017914,-0.00000560,-0.00000
 525,-0.00000133,-0.00002438,-0.00005826,-0.00004027,0.00000740,0.00001
 872,0.00001539,0.00006454,0.00015326,0.00006186,0.00021171,-0.00006008
 ,-0.00017324,-0.00289614,-0.00317351,-0.00229223,-0.01028790,-0.002422
 18,0.01722761,-0.03859868,-0.07455298,0.07677629,0.00541494,0.00550091
 ,-0.00712905,-0.00019784,-0.00065219,-0.00166214,-0.00004052,-0.000105
 99,-0.00019249,-0.00004905,-0.00004482,0.00004814,-0.00000215,-0.00000
 502,-0.00000543,0.00000384,0.00000214,0.00000097,0.00000085,0.00001757
 ,0.00000220,0.00004044,-0.00000867,-0.00000096,0.00006365,0.00032963,-
 0.00000439,0.00078170,0.00013587,-0.00028774,0.00393538,0.00382458,0.0
 0552428,0.03902106,0.06885804,0.00000142,0.00000195,-0.00001214,-0.000
 00157,-0.00004925,-0.00001794,-0.00002316,0.00004230,-0.00001913,0.000
 06544,0.00006515,0.00008025,-0.00047504,-0.00000750,0.00020503,0.00073
 010,-0.00356475,-0.00079464,0.01257069,0.00783683,-0.01467333,0.110270
 36,0.07713703,-0.22327727,0.00111234,0.00222179,-0.00110564,-0.0014832
 0,-0.00069215,0.00012793,-0.00009509,-0.00033383,0.00031935,0.00010437
 ,-0.00001456,-0.00007269,-0.00000209,-0.00000518,-0.00000024,-0.000002
 30,0.00000218,0.00000231,0.00000663,0.00000228,0.00001190,-0.00003739,
 0.00001668,0.00000340,0.00017391,-0.00000439,0.00025435,-0.00106679,0.
 00030072,0.00043195,-0.00058220,0.00552238,0.00088623,-0.12227949,-0.0
 8968774,0.23566618,-0.00004248,0.00001083,0.00000666,0.00004241,0.0000
 0608,-0.00003679,-0.00004969,-0.00001093,0.00003894,0.00006225,0.00001
 305,-0.00004506,-0.00003592,0.00001624,-0.00001323,-0.00000300,0.00020
 888,-0.00045318,0.00117283,-0.00183785,0.00099527,-0.01284993,-0.01022
 232,0.02504908,-0.12461556,-0.03922356,0.11053829,0.01005836,0.0054457
 2,-0.01142348,0.00037864,-0.00079229,-0.00268026,0.00009802,-0.0000073
 2,0.00000844,0.00000120,0.00000091,-0.00000093,-0.00000284,-0.00000183
 ,0.00000536,-0.00000151,0.00000413,-0.00000313,0.00000326,-0.00000439,
 0.00000801,-0.00003429,0.00004044,-0.00003739,0.00028455,-0.00000386,-
 0.00009272,0.00003776,0.00078241,-0.00107220,-0.00410098,0.00275506,0.
 00064708,0.12975901,-0.00001150,-0.00000142,0.00000342,0.00000409,0.00
 000498,-0.00001550,-0.00000530,-0.00002019,0.00001489,-0.00001615,0.00
 003787,-0.00001725,-0.00002141,-0.00004888,0.00006224,-0.00005580,-0.0
 0008158,-0.00018883,-0.00016583,-0.00068998,-0.00168907,0.00541046,0.0
 0544070,-0.00710628,-0.03859418,-0.07501220,0.07654757,-0.01024440,-0.
 00247385,0.01735971,-0.00300688,-0.00340972,-0.00235622,0.00023690,0.0
 0009378,-0.00014225,0.00000103,0.00000113,0.00000066,-0.00000123,0.000
 00019,0.00000267,0.00000179,0.00000183,0.00000195,-0.00000439,0.000004
 37,0.00000424,0.00001094,-0.00000866,0.00001668,-0.00000347,0.00002486
 ,0.00014698,-0.00020426,0.00013074,0.00029615,0.00274926,0.00206643,0.
 00134479,0.03898289,0.06941398,0.00004078,-0.00000993,-0.00001289,-0.0
 0003375,-0.00001669,0.00004214,0.00003033,0.00001826,-0.00005856,-0.00
 000041,-0.00003472,0.00007358,0.00004431,0.00003974,-0.00010377,-0.000
 04864,-0.00034714,0.00033271,-0.00156036,-0.00068905,0.00012649,0.0011
 5487,0.00224309,-0.00121073,0.10957605,0.07692391,-0.22314182,0.012558
 56,0.00797608,-0.01482678,0.00070475,-0.00368070,-0.00092340,-0.000364
 85,0.00000381,0.00030579,-0.00000112,0.00000074,0.00000151,0.00000445,
 0.00000303,-0.00000584,0.00000045,0.00000055,0.00000269,0.00000801,0.0
 0000424,-0.00000586,0.00000770,-0.00000096,0.00000340,-0.00009330,0.00
 014721,-0.00004953,0.00043590,-0.00029395,0.00043315,0.00065595,0.0013
 4131,0.00157951,-0.12161371,-0.08960740,0.23573702,0.00000037,-0.00000
 426,0.00000419,-0.00000537,0.00001196,-0.00000185,0.00001384,-0.000016
 86,0.00001347,-0.00003730,-0.00000506,-0.00002568,0.00005767,-0.000038
 83,0.00004529,-0.00005508,0.00005942,0.00007590,0.00015946,-0.00005973
 ,-0.00005908,0.00038518,-0.00084353,-0.00251013,0.01014400,0.00557221,
 -0.01162976,-0.12346990,-0.03939229,0.11066148,-0.01250613,-0.01031886
 ,0.02502780,0.00125773,-0.00145750,0.00056578,0.00000045,0.00000073,0.
 00000026,-0.00000013,0.00000035,0.00000051,-0.00000058,-0.00000215,-0.
 00000143,-0.00000151,0.00000179,0.00000045,0.00000608,0.00000085,0.000
 00663,-0.00003358,0.00001086,0.00000712,-0.00010154,0.00006408,0.00017
 355,0.00004496,-0.00020195,0.00043880,-0.00010357,0.00401735,-0.000559
 62,0.12809561,-0.00000245,-0.00000234,-0.00000032,0.00000505,0.0000149
 4,0.00000792,0.00000017,-0.00000758,0.00000122,-0.00003103,-0.00005589
 ,-0.00003843,0.00001604,0.00001736,0.00001611,0.00005418,0.00016002,0.
 00006491,0.00022686,-0.00006934,-0.00017025,-0.00295939,-0.00326108,-0
 .00236727,-0.01016683,-0.00236840,0.01725018,-0.03864667,-0.07499428,0
 .07795840,0.00547492,0.00541076,-0.00700533,-0.00029359,-0.00042216,-0
 .00150449,0.00000090,0.00000200,0.00000058,0.00000105,0.00000104,0.000
 00025,-0.00000215,-0.00000435,-0.00000503,0.00000413,0.00000183,0.0000
 0055,0.00000072,0.00001757,0.00000228,0.00004039,-0.00000877,-0.000001
 47,0.00006343,0.00032987,-0.00000346,0.00078076,0.00014051,-0.00028045
 ,0.00400117,0.00398350,0.00562325,0.03915939,0.06928297,0.00000141,0.0
 0000076,-0.00000552,0.00000872,0.00000378,0.00001110,-0.00001256,0.000
 01140,-0.00001663,0.00001401,-0.00005396,-0.00001908,-0.00003857,0.000
 04893,-0.00001753,0.00008391,0.00006178,0.00007907,-0.00049712,0.00000
 114,0.00020362,0.00072376,-0.00363265,-0.00084824,0.01242729,0.0078373
 0,-0.01447209,0.10952190,0.07840434,-0.22445279,0.00088711,0.00244026,
 -0.00129068,-0.00121330,-0.00080840,0.00043993,-0.00000001,0.00000068,
 0.00000169,-0.00000056,0.00000067,0.00000093,-0.00000143,-0.00000503,0
 .00000007,-0.00000313,0.00000195,0.00000269,0.00000684,0.00000219,0.00
 001190,-0.00003802,0.00001619,0.00000406,0.00017455,-0.00000386,0.0002
 5391,-0.00106326,0.00030729,0.00042874,-0.00053486,0.00561354,0.000967
 69,-0.12144740,-0.09094095,0.23674257,-0.00002680,0.00000711,0.0000038
 1,0.00002738,0.00000431,-0.00002300,-0.00002904,-0.00000438,0.00002336
 ,0.00002792,0.00000835,-0.00003203,-0.00003620,-0.00001099,0.00003214,
 0.00005173,0.00001088,-0.00003829,-0.00002549,0.00001444,-0.00001965,-
 0.00001725,0.00022594,-0.00045710,0.00122457,-0.00180129,0.00105362,-0
 .01304001,-0.01025868,0.02528145,-0.12256386,-0.04039361,0.11009595,0.
 01049561,0.00665941,-0.01332894,0.00000087,0.00000029,-0.00000030,-0.0
 0000240,-0.00000118,0.00000382,-0.00000013,0.00000105,-0.00000056,-0.0
 0000284,-0.00000123,0.00000445,-0.00000169,0.00000384,-0.00000230,0.00
 000333,-0.00000398,0.00000725,-0.00003377,0.00004068,-0.00003571,0.000
 28816,-0.00000887,-0.00009718,0.00003499,0.00079374,-0.00110238,-0.004
 24358,0.00272903,0.00053548,0.12727378,-0.00001296,0.00000128,0.000002
 33,0.00001064,0.00000410,-0.00001272,-0.00000902,-0.00000679,0.0000139
 9,0.00000240,0.00000768,-0.00001974,-0.00000573,-0.00001992,0.00001776
 ,-0.00001295,0.00003599,-0.00002356,-0.00003066,-0.00004964,0.00006145
 ,-0.00003730,-0.00006432,-0.00019137,-0.00012382,-0.00052550,-0.001594
 75,0.00544061,0.00536846,-0.00685290,-0.03967017,-0.07700028,0.0776640
 0,-0.00996632,-0.00242986,0.01766638,0.00000076,0.00000061,0.00000030,
 -0.00000118,-0.00000016,0.00000243,0.00000035,0.00000104,0.00000067,-0
 .00000183,0.00000019,0.00000303,0.00000180,0.00000214,0.00000218,-0.00
 000463,0.00000401,0.00000470,0.00001057,-0.00000493,0.00001724,-0.0000
 0321,0.00001240,0.00014045,-0.00021876,0.00012445,0.00027731,0.0026337
 1,0.00183079,0.00116972,0.03939463,0.07156856,0.00003449,-0.00000967,-
 0.00000811,-0.00003267,-0.00000893,0.00003313,0.00003045,0.00001121,-0
 .00003652,-0.00002294,-0.00002330,0.00004504,0.00002411,0.00002091,-0.
 00005691,-0.00000187,-0.00003781,0.00007442,0.00004929,0.00003447,-0.0
 0010360,-0.00005478,-0.00034879,0.00036175,-0.00151032,-0.00059154,0.0
 0019015,0.00128500,0.00253618,-0.00163126,0.10899017,0.07809655,-0.226
 26407,0.01208354,0.00772333,-0.01380320,-0.00000102,0.00000059,0.00000
 082,0.00000382,0.00000243,-0.00000504,0.00000051,0.00000025,0.00000093
 ,0.00000536,0.00000267,-0.00000584,0.00000081,0.00000096,0.00000231,0.
 00000823,0.00000431,-0.00000624,0.00001031,-0.00000076,0.00000548,-0.0
 0010581,0.00014383,-0.00005353,0.00044519,-0.00032822,0.00045570,0.000
 68117,0.00111271,0.00151840,-0.12000777,-0.09123296,0.23851546,0.00000
 724,-0.00000423,0.00000079,-0.00001168,0.00000028,0.00000297,0.0000124
 1,-0.00000542,0.00000045,-0.00001653,0.00001217,0.00000603,0.00002380,
 -0.00001740,0.00000689,-0.00004864,-0.00001009,-0.00001919,0.00006861,
 -0.00003811,0.00003927,-0.00004662,0.00007433,0.00011062,0.00012362,-0
 .00003925,-0.00005270,0.00046061,-0.00132027,-0.00268492,0.01085992,0.
 00560142,-0.01223393,-0.11813301,-0.03995199,0.11181918,-0.00000009,0.
 00000033,-0.00000005,0.00000087,0.00000076,-0.00000102,0.00000045,0.00
 000090,-0.00000001,0.00000120,0.00000103,-0.00000112,-0.00000041,-0.00
 000215,-0.00000209,0.00000029,0.00000261,-0.00000158,0.00000492,0.0000
 0135,0.00000484,-0.00003317,0.00001107,0.00000501,-0.00010038,0.000051
 61,0.00018386,0.00009799,-0.00024984,0.00049543,0.00032489,0.00444958,
 -0.00041564,0.11451737,-0.00000265,-0.00000127,0.00000012,-0.00000056,
 -0.00000266,-0.00000477,-0.00000009,-0.00000301,0.00000358,0.00000310,
 0.00001891,0.00000693,0.00000292,-0.00001211,0.00000278,-0.00003926,-0
 .00006012,-0.00004742,0.00002211,0.00001244,0.00002412,0.00005987,0.00
 024138,0.00009707,0.00024008,-0.00006937,-0.00013660,-0.00342973,-0.00
 402679,-0.00310962,-0.01011445,-0.00237297,0.01689045,-0.03814637,-0.0
 7640840,0.08874906,0.00000033,0.00000050,0.00000005,0.00000029,0.00000
 061,0.00000059,0.00000073,0.00000200,0.00000068,0.00000091,0.00000113,
 0.00000074,-0.00000256,-0.00000502,-0.00000518,0.00000363,0.00000211,0
 .00000122,0.00000060,0.00001503,0.00000182,0.00003631,-0.00000934,-0.0
 0000211,0.00005907,0.00031856,-0.00000417,0.00075243,0.00014904,-0.000
 23783,0.00460600,0.00512307,0.00623147,0.04162594,0.07200012,-0.000001
 61,0.00000106,-0.00000288,0.00000425,-0.00000527,-0.00000048,-0.000007
 70,0.00000677,-0.00000644,0.00001990,0.00000150,0.00001046,-0.00002417
 ,0.00001494,-0.00001752,0.00002538,-0.00006486,-0.00002255,-0.00005278
 ,0.00006013,-0.00002347,0.00013271,0.00008842,0.00011378,-0.00047963,0
 .00003043,0.00017554,0.00053932,-0.00437114,-0.00104435,0.01178802,0.0
 0749142,-0.01378074,0.10905931,0.08982900,-0.23580004,-0.00000005,0.00
 000005,0.00000062,-0.00000030,0.00000030,0.00000082,0.00000026,0.00000
 058,0.00000169,-0.00000093,0.00000066,0.00000151,-0.00000148,-0.000005
 43,-0.00000024,-0.00000313,0.00000182,0.00000341,0.00000599,0.00000137
 ,0.00001078,-0.00003357,0.00001299,0.00000371,0.00017245,0.00000029,0.
 00023536,-0.00103655,0.00036159,0.00035507,-0.00065478,0.00632499,0.00
 172585,-0.11907406,-0.10162092,0.24834547,-0.00002589,0.00000842,0.000
 00171,0.00003064,0.00000517,-0.00001776,-0.00003005,0.00000052,0.00001
 486,0.00002738,-0.00001558,-0.00003439,-0.00004225,0.00001089,0.000013
 66,0.00008145,0.00007907,0.00001896,-0.00012562,0.00001582,0.00000712,
 -0.00004459,-0.00029137,-0.00040666,-0.00056063,0.00010906,0.00030217,
 0.00213176,0.00397465,-0.00036455,-0.00971965,0.00222301,0.00491810,-0
 .31512852,0.08118848,0.04566711,0.00000106,0.00000018,0.00000014,-0.00
 000245,-0.00000138,0.00000394,-0.00000046,-0.00000071,-0.00000014,-0.0
 0000309,-0.00000124,0.00000480,0.00000213,0.00000572,0.00000417,-0.000
 00275,-0.00000257,0.00000591,-0.00000592,-0.00001890,-0.00001342,0.000
 01032,-0.00000426,0.00001518,0.00000998,0.00007599,-0.00003264,0.00029
 542,-0.00020553,-0.00003006,0.00027226,-0.00184514,-0.00150357,-0.0081
 1472,0.00432115,-0.00037700,0.33094743,0.00001933,-0.00000643,-0.00000
 404,-0.00001636,0.00000482,0.00002407,0.00001866,0.00000161,-0.0000195
 6,-0.00003488,-0.00005403,-0.00000346,0.00002671,0.00001213,-0.0000216
 5,0.00006199,0.00017283,0.00018059,0.00006930,-0.00003878,-0.00009418,
 -0.00034636,-0.00110809,-0.00034493,0.00090889,0.00018203,-0.00048037,
 0.00285815,0.00561722,0.00755855,0.01939333,-0.00100920,-0.00365833,0.
 07883287,-0.06180672,-0.00046771,-0.00000018,0.00000133,0.00000078,0.0
 0000244,0.00000159,-0.00000297,-0.00000048,-0.00000145,-0.00000136,0.0
 0000395,0.00000234,-0.00000321,0.00000581,0.00001540,0.00000924,0.0000
 0449,0.00000239,-0.00000549,-0.00002065,-0.00004873,-0.00003032,0.0000
 0814,0.00002284,-0.00000186,-0.00000770,0.00009676,0.00008538,0.000056
 37,-0.00014656,-0.00023790,-0.00201793,-0.00398495,-0.00333694,-0.0101
 9445,0.00508484,0.00183853,-0.08963318,0.05699006,-0.00001496,0.000002
 49,0.00000364,0.00001516,0.00001119,-0.00001200,-0.00001288,-0.0000087
 0,0.00001712,-0.00000488,-0.00001500,-0.00004409,-0.00001052,-0.000012
 19,0.00003334,0.00004508,0.00017037,0.00002787,-0.00007462,-0.00006220
 ,0.00006641,-0.00032265,-0.00037779,-0.00069884,-0.00092041,-0.0000020
 0,0.00077690,0.00134210,0.00689079,0.00034529,-0.02132690,0.00661045,0
 .00683592,0.04926762,-0.00187648,-0.05786461,0.00000069,0.00000056,0.0
 0000049,-0.00000190,-0.00000068,0.00000279,-0.00000050,-0.00000122,-0.
 00000036,-0.00000312,-0.00000011,0.00000382,0.00000404,0.00000929,0.00
 000710,-0.00000489,-0.00000126,0.00000541,-0.00001074,-0.00003137,-0.0
 0002228,-0.00000378,0.00000556,0.00001857,0.00009528,0.00003533,0.0000
 3862,-0.00043039,-0.00008127,0.00010147,-0.00123944,-0.00344026,-0.000
 95791,0.02181027,-0.00684262,-0.00028584,-0.04819559,-0.00098343,0.051
 60300,-0.31511641,0.08119959,0.04568066,-0.00971932,0.00222361,0.00491
 867,0.00213213,0.00397512,-0.00036414,-0.00056059,0.00010909,0.0003022
 1,-0.00004465,-0.00029144,-0.00040672,-0.00012561,0.00001582,0.0000071
 3,0.00008145,0.00007908,0.00001897,-0.00004225,0.00001089,0.00001366,0
 .00002738,-0.00001558,-0.00003440,-0.00003005,0.00000052,0.00001486,0.
 00003064,0.00000517,-0.00001776,-0.00002589,0.00000842,0.00000171,-0.0
 0811410,0.00432153,-0.00037643,0.00027195,-0.00184546,-0.00150383,0.00
 029539,-0.00020555,-0.00003009,0.00000998,0.00007599,-0.00003263,0.000
 01032,-0.00000426,0.00001518,-0.00000592,-0.00001890,-0.00001342,-0.00
 000275,-0.00000258,0.00000591,0.00000213,0.00000572,0.00000418,-0.0000
 0309,-0.00000124,0.00000480,-0.00000046,-0.00000072,-0.00000014,-0.000
 00245,-0.00000138,0.00000394,0.00000106,0.00000018,0.00000014,-0.00000
 324,0.00000174,-0.00000207,0.33093434,0.07884398,-0.06181461,-0.000473
 50,0.01939426,-0.00101036,-0.00365967,0.00285854,0.00561650,0.00755858
 ,0.00090897,0.00018197,-0.00048042,-0.00034639,-0.00110804,-0.00034490
 ,0.00006930,-0.00003879,-0.00009418,0.00006199,0.00017283,0.00018059,0
 .00002671,0.00001213,-0.00002165,-0.00003488,-0.00005403,-0.00000345,0
 .00001867,0.00000161,-0.00001956,-0.00001636,0.00000482,0.00002407,0.0
 0001933,-0.00000643,-0.00000404,-0.01019439,0.00508528,0.00183916,-0.0
 0201826,-0.00398459,-0.00333684,0.00005635,-0.00014654,-0.00023791,-0.
 00000770,0.00009676,0.00008539,0.00000814,0.00002284,-0.00000186,-0.00
 002065,-0.00004873,-0.00003032,0.00000449,0.00000239,-0.00000549,0.000
 00581,0.00001540,0.00000924,0.00000395,0.00000234,-0.00000321,-0.00000
 048,-0.00000145,-0.00000136,0.00000244,0.00000159,-0.00000297,-0.00000
 018,0.00000133,0.00000078,0.00000174,-0.00000327,0.00000054,-0.0896453
 7,0.05699904,0.04928108,-0.00188255,-0.05786873,-0.02132530,0.00661122
 ,0.00683667,0.00134240,0.00689072,0.00034568,-0.00092030,-0.00000199,0
 .00077691,-0.00032269,-0.00037779,-0.00069883,-0.00007462,-0.00006220,
 0.00006641,0.00004508,0.00017037,0.00002787,-0.00001052,-0.00001219,0.
 00003334,-0.00000488,-0.00001500,-0.00004409,-0.00001288,-0.00000870,0
 .00001712,0.00001515,0.00001119,-0.00001200,-0.00001496,0.00000249,0.0
 0000364,0.02180995,-0.00684373,-0.00028693,-0.00123974,-0.00344022,-0.
 00095798,-0.00043040,-0.00008125,0.00010148,0.00009528,0.00003533,0.00
 003862,-0.00000378,0.00000556,0.00001857,-0.00001074,-0.00003137,-0.00
 002228,-0.00000489,-0.00000126,0.00000541,0.00000404,0.00000929,0.0000
 0710,-0.00000312,-0.00000011,0.00000382,-0.00000050,-0.00000122,-0.000
 00037,-0.00000190,-0.00000068,0.00000279,0.00000069,0.00000056,0.00000
 049,-0.00000207,0.00000054,-0.00000182,-0.04821041,-0.00097702,0.05160
 711\\-0.00000922,-0.00001743,0.00003208,-0.00001378,0.00003602,-0.0000
 4686,-0.00000795,-0.00005112,0.00008283,0.00000660,0.00005008,-0.00008
 049,0.00000640,-0.00005997,0.00008773,-0.00000599,0.00005970,-0.000087
 65,0.00000588,-0.00005952,0.00008748,-0.00000636,0.00005982,-0.0000877
 5,-0.00000683,-0.00004980,0.00008021,0.00000814,0.00005088,-0.00008269
 ,0.00001361,-0.00003584,0.00004661,0.00000923,0.00001725,-0.00003196,0
 .00000565,0.00000193,-0.00000614,-0.00000453,-0.00000606,0.00001215,0.
 00001320,0.00000761,-0.00001959,-0.00001115,-0.00000648,0.00001674,0.0
 0000873,0.00000841,-0.00001833,-0.00000919,-0.00000816,0.00001798,0.00
 000926,0.00000808,-0.00001789,-0.00000879,-0.00000867,0.00001826,0.000
 01128,0.00000654,-0.00001656,-0.00001322,-0.00000767,0.00001958,0.0000
 0464,0.00000615,-0.00001199,-0.00000561,-0.00000176,0.00000622,-0.0000
 0310,-0.00000633,0.00001156,0.00000311,0.00000634,-0.00001152\\\@


 BREAD HAS TO MOLD IN ORDER TO GET PENICILLIN.
          -- JERRY BOATZ
 Job cpu time:       0 days  0 hours 17 minutes 51.7 seconds.
 Elapsed time:       0 days  0 hours 17 minutes 51.7 seconds.
 File lengths (MBytes):  RWF=    175 Int=      0 D2E=      0 Chk=      7 Scr=      1
 Normal termination of Gaussian 16 at Fri Oct 27 16:16:26 2023.
