 Entering Gaussian System, Link 0=g16
 Input=./com/6.com
 Output=./log/6.log
 Initial command:
 /home/shohei/gaussian/g16/l1.exe "/home/shohei/gaussian/scratch/Gau-13313.inp" -scrdir="/home/shohei/gaussian/scratch/"
 Entering Link 1 = /home/shohei/gaussian/g16/l1.exe PID=     13315.
  
 Copyright (c) 1988-2017, Gaussian, Inc.  All Rights Reserved.
  
 This is part of the Gaussian(R) 16 program.  It is based on
 the Gaussian(R) 09 system (copyright 2009, Gaussian, Inc.),
 the Gaussian(R) 03 system (copyright 2003, Gaussian, Inc.),
 the Gaussian(R) 98 system (copyright 1998, Gaussian, Inc.),
 the Gaussian(R) 94 system (copyright 1995, Gaussian, Inc.),
 the Gaussian 92(TM) system (copyright 1992, Gaussian, Inc.),
 the Gaussian 90(TM) system (copyright 1990, Gaussian, Inc.),
 the Gaussian 88(TM) system (copyright 1988, Gaussian, Inc.),
 the Gaussian 86(TM) system (copyright 1986, Carnegie Mellon
 University), and the Gaussian 82(TM) system (copyright 1983,
 Carnegie Mellon University). Gaussian is a federally registered
 trademark of Gaussian, Inc.
  
 This software contains proprietary and confidential information,
 including trade secrets, belonging to Gaussian, Inc.
  
 This software is provided under written license and may be
 used, copied, transmitted, or stored only in accord with that
 written license.
  
 The following legend is applicable only to US Government
 contracts under FAR:
  
                    RESTRICTED RIGHTS LEGEND
  
 Use, reproduction and disclosure by the US Government is
 subject to restrictions as set forth in subparagraphs (a)
 and (c) of the Commercial Computer Software - Restricted
 Rights clause in FAR 52.227-19.
  
 Gaussian, Inc.
 340 Quinnipiac St., Bldg. 40, Wallingford CT 06492
  
  
 ---------------------------------------------------------------
 Warning -- This program may not be used in any manner that
 competes with the business of Gaussian, Inc. or will provide
 assistance to any competitor of Gaussian, Inc.  The licensee
 of this program is prohibited from giving any competitor of
 Gaussian, Inc. access to this program.  By using this program,
 the user acknowledges that Gaussian, Inc. is engaged in the
 business of creating and licensing software in the field of
 computational chemistry and represents and warrants to the
 licensee that it is not a competitor of Gaussian, Inc. and that
 it will not use this program in any manner prohibited above.
 ---------------------------------------------------------------
  

 Cite this work as:
 Gaussian 16, Revision B.01,
 M. J. Frisch, G. W. Trucks, H. B. Schlegel, G. E. Scuseria, 
 M. A. Robb, J. R. Cheeseman, G. Scalmani, V. Barone, 
 G. A. Petersson, H. Nakatsuji, X. Li, M. Caricato, A. V. Marenich, 
 J. Bloino, B. G. Janesko, R. Gomperts, B. Mennucci, H. P. Hratchian, 
 J. V. Ortiz, A. F. Izmaylov, J. L. Sonnenberg, D. Williams-Young, 
 F. Ding, F. Lipparini, F. Egidi, J. Goings, B. Peng, A. Petrone, 
 T. Henderson, D. Ranasinghe, V. G. Zakrzewski, J. Gao, N. Rega, 
 G. Zheng, W. Liang, M. Hada, M. Ehara, K. Toyota, R. Fukuda, 
 J. Hasegawa, M. Ishida, T. Nakajima, Y. Honda, O. Kitao, H. Nakai, 
 T. Vreven, K. Throssell, J. A. Montgomery, Jr., J. E. Peralta, 
 F. Ogliaro, M. J. Bearpark, J. J. Heyd, E. N. Brothers, K. N. Kudin, 
 V. N. Staroverov, T. A. Keith, R. Kobayashi, J. Normand, 
 K. Raghavachari, A. P. Rendell, J. C. Burant, S. S. Iyengar, 
 J. Tomasi, M. Cossi, J. M. Millam, M. Klene, C. Adamo, R. Cammi, 
 J. W. Ochterski, R. L. Martin, K. Morokuma, O. Farkas, 
 J. B. Foresman, and D. J. Fox, Gaussian, Inc., Wallingford CT, 2016.
 
 ******************************************
 Gaussian 16:  EM64L-G16RevB.01 20-Dec-2017
                 9-Nov-2023 
 ******************************************
 %chk=checkpoint.chk
 %nprocshared=4
 Will use up to    4 processors via shared memory.
 ---------------------------
 # B3LYP/6-31G(d,p) OPT FREQ
 ---------------------------
 1/18=20,19=15,26=3,38=1/1,3;
 2/9=110,12=2,17=6,18=5,40=1/2;
 3/5=1,6=6,7=101,11=2,25=1,30=1,71=1,74=-5/1,2,3;
 4//1;
 5/5=2,38=5/2;
 6/7=2,8=2,9=2,10=2,28=1/1;
 7//1,2,3,16;
 1/18=20,19=15,26=3/3(2);
 2/9=110/2;
 99//99;
 2/9=110/2;
 3/5=1,6=6,7=101,11=2,25=1,30=1,71=1,74=-5/1,2,3;
 4/5=5,16=3,69=1/1;
 5/5=2,38=5/2;
 7//1,2,3,16;
 1/18=20,19=15,26=3/3(-5);
 2/9=110/2;
 6/7=2,8=2,9=2,10=2,19=2,28=1/1;
 99/9=1/99;
 -----
 7poly
 -----
 Symbolic Z-matrix:
 Charge =  0 Multiplicity = 1
 C                    -2.28203   1.16002   0.01212 
 C                    -1.06259   1.70168  -0.03038 
 C                     0.14943   0.85829   0.01513 
 C                     1.37122   1.40579  -0.02797 
 C                     2.5837    0.56218   0.01737 
 C                     3.80576   1.10915  -0.02617 
 C                     5.01779   0.26487   0.01894 
 C                     6.24015   0.81112  -0.02514 
 C                     7.45175  -0.03383   0.01974 
 C                     8.67431   0.51179  -0.02477 
 C                     9.88488  -0.33377   0.01999 
 C                     11.10531   0.20546  -0.02433 
 H                    -3.15978   1.79722  -0.02255 
 H                    -2.41725   0.08462   0.08132 
 H                    -0.96884   2.78215  -0.09966 
 H                     0.04297  -0.22198   0.08454 
 H                     1.47692   2.48612  -0.09746 
 H                     2.47757  -0.51808   0.08697 
 H                     3.91214   2.18938  -0.09588 
 H                     4.91108  -0.81532   0.08879 
 H                     6.34711   1.89127  -0.0951 
 H                     7.34467  -1.11398   0.08983 
 H                     8.78246   1.59183  -0.09493 
 H                     9.78918  -1.41402   0.09012 
 H                     11.24257   1.28052  -0.09449 
 H                     11.98182  -0.4335    0.00976 
 

 GradGradGradGradGradGradGradGradGradGradGradGradGradGradGradGradGradGrad
 Berny optimization.
 Initialization pass.
                           ----------------------------
                           !    Initial Parameters    !
                           ! (Angstroms and Degrees)  !
 --------------------------                            --------------------------
 ! Name  Definition              Value          Derivative Info.                !
 --------------------------------------------------------------------------------
 ! R1    R(1,2)                  1.335          estimate D2E/DX2                !
 ! R2    R(1,13)                 1.0852         estimate D2E/DX2                !
 ! R3    R(1,14)                 1.0861         estimate D2E/DX2                !
 ! R4    R(2,3)                  1.4773         estimate D2E/DX2                !
 ! R5    R(2,15)                 1.0867         estimate D2E/DX2                !
 ! R6    R(3,4)                  1.3396         estimate D2E/DX2                !
 ! R7    R(3,16)                 1.0877         estimate D2E/DX2                !
 ! R8    R(4,5)                  1.4778         estimate D2E/DX2                !
 ! R9    R(4,17)                 1.0877         estimate D2E/DX2                !
 ! R10   R(5,6)                  1.3396         estimate D2E/DX2                !
 ! R11   R(5,18)                 1.0877         estimate D2E/DX2                !
 ! R12   R(6,7)                  1.4778         estimate D2E/DX2                !
 ! R13   R(6,19)                 1.0877         estimate D2E/DX2                !
 ! R14   R(7,8)                  1.3396         estimate D2E/DX2                !
 ! R15   R(7,20)                 1.0877         estimate D2E/DX2                !
 ! R16   R(8,9)                  1.4778         estimate D2E/DX2                !
 ! R17   R(8,21)                 1.0877         estimate D2E/DX2                !
 ! R18   R(9,10)                 1.3395         estimate D2E/DX2                !
 ! R19   R(9,22)                 1.0877         estimate D2E/DX2                !
 ! R20   R(10,11)                1.4773         estimate D2E/DX2                !
 ! R21   R(10,23)                1.0877         estimate D2E/DX2                !
 ! R22   R(11,12)                1.335          estimate D2E/DX2                !
 ! R23   R(11,24)                1.0868         estimate D2E/DX2                !
 ! R24   R(12,25)                1.0861         estimate D2E/DX2                !
 ! R25   R(12,26)                1.0852         estimate D2E/DX2                !
 ! A1    A(2,1,13)             119.9708         estimate D2E/DX2                !
 ! A2    A(2,1,14)             121.1649         estimate D2E/DX2                !
 ! A3    A(13,1,14)            118.8642         estimate D2E/DX2                !
 ! A4    A(1,2,3)              121.1179         estimate D2E/DX2                !
 ! A5    A(1,2,15)             118.9617         estimate D2E/DX2                !
 ! A6    A(3,2,15)             119.9204         estimate D2E/DX2                !
 ! A7    A(2,3,4)              120.9295         estimate D2E/DX2                !
 ! A8    A(2,3,16)             119.2524         estimate D2E/DX2                !
 ! A9    A(4,3,16)             119.8182         estimate D2E/DX2                !
 ! A10   A(3,4,5)              120.9328         estimate D2E/DX2                !
 ! A11   A(3,4,17)             119.7781         estimate D2E/DX2                !
 ! A12   A(5,4,17)             119.289          estimate D2E/DX2                !
 ! A13   A(4,5,6)              120.9576         estimate D2E/DX2                !
 ! A14   A(4,5,18)             119.266          estimate D2E/DX2                !
 ! A15   A(6,5,18)             119.7763         estimate D2E/DX2                !
 ! A16   A(5,6,7)              120.927          estimate D2E/DX2                !
 ! A17   A(5,6,19)             119.7888         estimate D2E/DX2                !
 ! A18   A(7,6,19)             119.2842         estimate D2E/DX2                !
 ! A19   A(6,7,8)              120.9588         estimate D2E/DX2                !
 ! A20   A(6,7,20)             119.2662         estimate D2E/DX2                !
 ! A21   A(8,7,20)             119.775          estimate D2E/DX2                !
 ! A22   A(7,8,9)              120.9287         estimate D2E/DX2                !
 ! A23   A(7,8,21)             119.788          estimate D2E/DX2                !
 ! A24   A(9,8,21)             119.2833         estimate D2E/DX2                !
 ! A25   A(8,9,10)             120.9557         estimate D2E/DX2                !
 ! A26   A(8,9,22)             119.2769         estimate D2E/DX2                !
 ! A27   A(10,9,22)            119.7674         estimate D2E/DX2                !
 ! A28   A(9,10,11)            120.9134         estimate D2E/DX2                !
 ! A29   A(9,10,23)            119.8239         estimate D2E/DX2                !
 ! A30   A(11,10,23)           119.2626         estimate D2E/DX2                !
 ! A31   A(10,11,12)           121.1262         estimate D2E/DX2                !
 ! A32   A(10,11,24)           119.9166         estimate D2E/DX2                !
 ! A33   A(12,11,24)           118.9573         estimate D2E/DX2                !
 ! A34   A(11,12,25)           121.1662         estimate D2E/DX2                !
 ! A35   A(11,12,26)           119.967          estimate D2E/DX2                !
 ! A36   A(25,12,26)           118.8668         estimate D2E/DX2                !
 ! D1    D(13,1,2,3)          -179.9979         estimate D2E/DX2                !
 ! D2    D(13,1,2,15)           -0.0006         estimate D2E/DX2                !
 ! D3    D(14,1,2,3)             0.0005         estimate D2E/DX2                !
 ! D4    D(14,1,2,15)          179.9979         estimate D2E/DX2                !
 ! D5    D(1,2,3,4)            179.9888         estimate D2E/DX2                !
 ! D6    D(1,2,3,16)            -0.006          estimate D2E/DX2                !
 ! D7    D(15,2,3,4)            -0.0085         estimate D2E/DX2                !
 ! D8    D(15,2,3,16)          179.9967         estimate D2E/DX2                !
 ! D9    D(2,3,4,5)           -179.9922         estimate D2E/DX2                !
 ! D10   D(2,3,4,17)             0.0006         estimate D2E/DX2                !
 ! D11   D(16,3,4,5)             0.0026         estimate D2E/DX2                !
 ! D12   D(16,3,4,17)          179.9954         estimate D2E/DX2                !
 ! D13   D(3,4,5,6)            179.9765         estimate D2E/DX2                !
 ! D14   D(3,4,5,18)            -0.0143         estimate D2E/DX2                !
 ! D15   D(17,4,5,6)            -0.0163         estimate D2E/DX2                !
 ! D16   D(17,4,5,18)          179.9929         estimate D2E/DX2                !
 ! D17   D(4,5,6,7)           -179.9875         estimate D2E/DX2                !
 ! D18   D(4,5,6,19)             0.0024         estimate D2E/DX2                !
 ! D19   D(18,5,6,7)             0.0033         estimate D2E/DX2                !
 ! D20   D(18,5,6,19)          179.9932         estimate D2E/DX2                !
 ! D21   D(5,6,7,8)            179.9713         estimate D2E/DX2                !
 ! D22   D(5,6,7,20)            -0.0186         estimate D2E/DX2                !
 ! D23   D(19,6,7,8)            -0.0187         estimate D2E/DX2                !
 ! D24   D(19,6,7,20)          179.9914         estimate D2E/DX2                !
 ! D25   D(6,7,8,9)           -179.9875         estimate D2E/DX2                !
 ! D26   D(6,7,8,21)             0.0033         estimate D2E/DX2                !
 ! D27   D(20,7,8,9)             0.0025         estimate D2E/DX2                !
 ! D28   D(20,7,8,21)          179.9932         estimate D2E/DX2                !
 ! D29   D(7,8,9,10)           179.9765         estimate D2E/DX2                !
 ! D30   D(7,8,9,22)            -0.0163         estimate D2E/DX2                !
 ! D31   D(21,8,9,10)           -0.0143         estimate D2E/DX2                !
 ! D32   D(21,8,9,22)          179.9929         estimate D2E/DX2                !
 ! D33   D(8,9,10,11)         -179.9921         estimate D2E/DX2                !
 ! D34   D(8,9,10,23)            0.0026         estimate D2E/DX2                !
 ! D35   D(22,9,10,11)           0.0006         estimate D2E/DX2                !
 ! D36   D(22,9,10,23)         179.9954         estimate D2E/DX2                !
 ! D37   D(9,10,11,12)         179.9888         estimate D2E/DX2                !
 ! D38   D(9,10,11,24)          -0.0086         estimate D2E/DX2                !
 ! D39   D(23,10,11,12)         -0.006          estimate D2E/DX2                !
 ! D40   D(23,10,11,24)        179.9967         estimate D2E/DX2                !
 ! D41   D(10,11,12,25)          0.0005         estimate D2E/DX2                !
 ! D42   D(10,11,12,26)       -179.9979         estimate D2E/DX2                !
 ! D43   D(24,11,12,25)        179.9979         estimate D2E/DX2                !
 ! D44   D(24,11,12,26)         -0.0006         estimate D2E/DX2                !
 --------------------------------------------------------------------------------
 Trust Radius=3.00D-01 FncErr=1.00D-07 GrdErr=1.00D-06 EigMax=2.50D+02 EigMin=1.00D-04
 Number of steps in this run=    115 maximum allowed number of steps=    156.
 GradGradGradGradGradGradGradGradGradGradGradGradGradGradGradGradGradGrad

                          Input orientation:                          
 ---------------------------------------------------------------------
 Center     Atomic      Atomic             Coordinates (Angstroms)
 Number     Number       Type             X           Y           Z
 ---------------------------------------------------------------------
      1          6           0       -2.282032    1.160016    0.012119
      2          6           0       -1.062593    1.701675   -0.030375
      3          6           0        0.149428    0.858289    0.015133
      4          6           0        1.371221    1.405794   -0.027974
      5          6           0        2.583701    0.562182    0.017372
      6          6           0        3.805765    1.109147   -0.026174
      7          6           0        5.017794    0.264870    0.018940
      8          6           0        6.240150    0.811116   -0.025139
      9          6           0        7.451748   -0.033827    0.019743
     10          6           0        8.674311    0.511793   -0.024770
     11          6           0        9.884878   -0.333770    0.019985
     12          6           0       11.105308    0.205464   -0.024326
     13          1           0       -3.159785    1.797225   -0.022550
     14          1           0       -2.417252    0.084621    0.081316
     15          1           0       -0.968843    2.782146   -0.099655
     16          1           0        0.042967   -0.221976    0.084539
     17          1           0        1.476924    2.486116   -0.097455
     18          1           0        2.477565   -0.518080    0.086971
     19          1           0        3.912136    2.189377   -0.095885
     20          1           0        4.911085   -0.815319    0.088793
     21          1           0        6.347105    1.891271   -0.095104
     22          1           0        7.344672   -1.113978    0.089826
     23          1           0        8.782455    1.591834   -0.094932
     24          1           0        9.789178   -1.414025    0.090117
     25          1           0       11.242572    1.280524   -0.094489
     26          1           0       11.981816   -0.433500    0.009763
 ---------------------------------------------------------------------
                    Distance matrix (angstroms):
                    1          2          3          4          5
     1  C    0.000000
     2  C    1.335002   0.000000
     3  C    2.450111   1.477284   0.000000
     4  C    3.661730   2.451734   1.339551   0.000000
     5  C    4.902325   3.820496   2.452217   1.477784   0.000000
     6  C    6.088130   4.904286   3.665165   2.452551   1.339592
     7  C    7.354508   6.248036   4.904401   3.821179   2.452184
     8  C    8.529402   7.356846   6.091038   4.905112   3.665159
     9  C    9.806722   8.689562   7.356614   6.248808   4.904398
    10  C   10.975564   9.809340   8.532015   7.357607   6.090964
    11  C   12.258269  11.135201   9.808161   8.689692   7.355945
    12  C   13.421378  12.259548  10.975384   9.807817   8.529172
    13  H    1.085213   2.099381   3.440045   4.547885   5.874908
    14  H    1.086069   2.112449   2.681565   4.013723   5.024111
    15  H    2.090040   1.086742   2.228214   2.715765   4.190764
    16  H    2.705691   2.221689   1.087714   2.103937   2.659839
    17  H    3.987518   2.658759   2.103508   1.087703   2.222535
    18  H    5.047313   4.180168   2.705508   2.222274   1.087693
    19  H    6.280045   4.999007   3.992755   2.659861   2.103646
    20  H    7.459809   6.483386   5.047748   4.180624   2.705425
    21  H    8.660730   7.412407   6.284140   4.999963   3.992786
    22  H    9.891942   8.867043   7.461028   6.484231   5.047931
    23  H   11.073428   9.845873   8.664835   7.413872   6.284692
    24  H   12.342847  11.290839   9.904232   8.878476   7.471920
    25  H   13.525561  12.312538  11.101718   9.872371   8.689337
    26  H   14.352584  13.218064  11.902696  10.768898   9.450715
                    6          7          8          9         10
     6  C    0.000000
     7  C    1.477787   0.000000
     8  C    2.452561   1.339583   0.000000
     9  C    3.821216   2.452214   1.477806   0.000000
    10  C    4.905056   3.665105   2.452495   1.339530   0.000000
    11  C    6.248181   4.903762   3.820581   2.451548   1.477312
    12  C    7.355269   6.087958   4.902711   3.661653   2.450222
    13  H    6.999453   8.320014   9.451518  10.768434  11.903703
    14  H    6.307705   7.437493   8.688483   9.869903  11.100293
    15  H    5.059763   6.495427   7.473961   8.879770   9.907095
    16  H    3.992843   4.999023   6.283660   7.411453   8.663167
    17  H    2.706404   4.181536   5.049671   6.485551   7.463619
    18  H    2.103517   2.659023   3.992039   4.998151   6.282737
    19  H    1.087690   2.222475   2.706337   4.181490   5.049521
    20  H    2.222278   1.087692   2.103493   2.659035   3.991991
    21  H    2.659865   2.103630   1.087691   2.222482   2.706251
    22  H    4.180862   2.705662   2.222425   1.087706   2.103379
    23  H    5.000516   3.993304   2.660396   2.103974   1.087708
    24  H    6.494702   5.058642   4.190482   2.715415   2.228206
    25  H    7.439096   6.308112   5.024876   4.013840   2.681749
    26  H    8.320389   6.998958   5.875119   4.547676   3.440111
                   11         12         13         14         15
    11  C    0.000000
    12  C    1.334986   0.000000
    13  H   13.217646  14.353626   0.000000
    14  H   12.309396  13.523513   1.869533   0.000000
    15  H   11.292764  12.346258   2.403381   3.067129   0.000000
    16  H    9.842758  11.071132   3.787645   2.479252   3.175285
    17  H    8.869005   9.895075   4.688203   4.578619   2.463619
    18  H    7.409908   8.658744   6.095272   4.931787   4.775359
    19  H    6.484855   7.462088   7.083164   6.672522   4.916843
    20  H    4.997524   6.278790   8.483909   7.383392   6.895710
    21  H    4.180896   5.048510   9.507632   8.950367   7.369992
    22  H    2.658242   3.987022  10.900978   9.835236   9.183149
    23  H    2.221822   2.706040  11.944225  11.302044   9.823680
    24  H    1.086751   2.089986  13.341681  12.298088  11.548978
    25  H    2.112435   1.086056  14.411802  13.713202  12.303397
    26  H    2.099333   1.085221  15.305073  14.408565  13.344360
                   16         17         18         19         20
    16  H    0.000000
    17  H    3.069710   0.000000
    18  H    2.452540   3.171828   0.000000
    19  H    4.562635   2.453225   3.069487   0.000000
    20  H    4.904146   4.767350   2.451606   3.171782   0.000000
    21  H    6.651334   4.906375   4.561959   2.453150   3.069463
    22  H    7.355990   6.886670   4.903451   4.767489   2.451845
    23  H    8.927529   7.360063   6.651050   4.906839   4.562417
    24  H    9.818841   9.183673   7.366302   6.896284   4.914697
    25  H   11.301359   9.839784   8.949483   7.386563   6.671872
    26  H   11.940957  10.903597   9.504941   8.485894   7.081474
                   21         22         23         24         25
    21  H    0.000000
    22  H    3.171886   0.000000
    23  H    2.453689   3.069655   0.000000
    24  H    4.775684   2.462852   3.175362   0.000000
    25  H    4.933418   4.578345   2.479736   3.067088   0.000000
    26  H    6.096354   4.687491   3.787988   2.403237   1.869553
                   26
    26  H    0.000000
 Stoichiometry    C12H14
 Framework group  C1[X(C12H14)]
 Deg. of freedom    72
 Full point group                 C1      NOp   1
 Largest Abelian subgroup         C1      NOp   1
 Largest concise Abelian subgroup C1      NOp   1
                         Standard orientation:                         
 ---------------------------------------------------------------------
 Center     Atomic      Atomic             Coordinates (Angstroms)
 Number     Number       Type             X           Y           Z
 ---------------------------------------------------------------------
      1          6           0        6.705617   -0.256260    0.001584
      2          6           0        5.552299    0.416115    0.000606
      3          6           0        4.255766   -0.291960    0.000153
      4          6           0        3.100743    0.386508   -0.000603
      5          6           0        1.803730   -0.321730   -0.000883
      6          6           0        0.648379    0.356260   -0.001168
      7          6           0       -0.648259   -0.352673   -0.001171
      8          6           0       -1.803979    0.324670   -0.000881
      9          6           0       -3.100260   -0.384954   -0.000606
     10          6           0       -4.256254    0.291817    0.000155
     11          6           0       -5.551578   -0.418526    0.000603
     12          6           0       -6.706146    0.251667    0.001586
     13          1           0        7.647446    0.282855    0.001936
     14          1           0        6.723114   -1.342188    0.002064
     15          1           0        5.576577    1.502585    0.000186
     16          1           0        4.244145   -1.379612    0.000527
     17          1           0        3.113123    1.474141   -0.000899
     18          1           0        1.791786   -1.409357   -0.000704
     19          1           0        0.660085    1.443888   -0.001235
     20          1           0       -0.659625   -1.440305   -0.001246
     21          1           0       -1.792862    1.412304   -0.000693
     22          1           0       -3.111257   -1.472605   -0.000911
     23          1           0       -4.246331    1.379480    0.000538
     24          1           0       -5.573895   -1.505048    0.000173
     25          1           0       -6.725712    1.337546    0.002075
     26          1           0       -7.646929   -0.289287    0.001934
 ---------------------------------------------------------------------
 Rotational constants (GHZ):          12.1422413           0.1738175           0.1713645
 Standard basis: 6-31G(d,p) (6D, 7F)
 There are   250 symmetry adapted cartesian basis functions of A   symmetry.
 There are   250 symmetry adapted basis functions of A   symmetry.
   250 basis functions,   434 primitive gaussians,   250 cartesian basis functions
    43 alpha electrons       43 beta electrons
       nuclear repulsion energy       534.7660779491 Hartrees.
 NAtoms=   26 NActive=   26 NUniq=   26 SFac= 1.00D+00 NAtFMM=   60 NAOKFM=F Big=F
 Integral buffers will be    131072 words long.
 Raffenetti 2 integral format.
 Two-electron integral symmetry is turned on.
 One-electron integrals computed using PRISM.
 NBasis=   250 RedAO= T EigKep=  1.41D-03  NBF=   250
 NBsUse=   250 1.00D-06 EigRej= -1.00D+00 NBFU=   250
 ExpMin= 1.61D-01 ExpMax= 3.05D+03 ExpMxC= 4.57D+02 IAcc=3 IRadAn=         5 AccDes= 0.00D+00
 Harris functional with IExCor=  402 and IRadAn=       5 diagonalized for initial guess.
 HarFok:  IExCor=  402 AccDes= 0.00D+00 IRadAn=         5 IDoV= 1 UseB2=F ITyADJ=14
 ICtDFT=  3500011 ScaDFX=  1.000000  1.000000  1.000000  1.000000
 FoFCou: FMM=F IPFlag=           0 FMFlag=      100000 FMFlg1=           0
         NFxFlg=           0 DoJE=T BraDBF=F KetDBF=T FulRan=T
         wScrn=  0.000000 ICntrl=       500 IOpCl=  0 I1Cent=   200000004 NGrid=           0
         NMat0=    1 NMatS0=      1 NMatT0=    0 NMatD0=    1 NMtDS0=    0 NMtDT0=    0
 Petite list used in FoFCou.
 Requested convergence on RMS density matrix=1.00D-08 within 128 cycles.
 Requested convergence on MAX density matrix=1.00D-06.
 Requested convergence on             energy=1.00D-06.
 No special actions if energy rises.
 Integral accuracy reduced to 1.0D-05 until final iterations.
 Initial convergence to 1.0D-05 achieved.  Increase integral accuracy.
 SCF Done:  E(RB3LYP) =  -465.631676526     A.U. after   13 cycles
            NFock= 13  Conv=0.60D-08     -V/T= 2.0100

 **********************************************************************

            Population analysis using the SCF Density.

 **********************************************************************

 Orbital symmetries:
       Occupied  (A) (A) (A) (A) (A) (A) (A) (A) (A) (A) (A) (A)
                 (A) (A) (A) (A) (A) (A) (A) (A) (A) (A) (A) (A)
                 (A) (A) (A) (A) (A) (A) (A) (A) (A) (A) (A) (A)
                 (A) (A) (A) (A) (A) (A) (A)
       Virtual   (A) (A) (A) (A) (A) (A) (A) (A) (A) (A) (A) (A)
                 (A) (A) (A) (A) (A) (A) (A) (A) (A) (A) (A) (A)
                 (A) (A) (A) (A) (A) (A) (A) (A) (A) (A) (A) (A)
                 (A) (A) (A) (A) (A) (A) (A) (A) (A) (A) (A) (A)
                 (A) (A) (A) (A) (A) (A) (A) (A) (A) (A) (A) (A)
                 (A) (A) (A) (A) (A) (A) (A) (A) (A) (A) (A) (A)
                 (A) (A) (A) (A) (A) (A) (A) (A) (A) (A) (A) (A)
                 (A) (A) (A) (A) (A) (A) (A) (A) (A) (A) (A) (A)
                 (A) (A) (A) (A) (A) (A) (A) (A) (A) (A) (A) (A)
                 (A) (A) (A) (A) (A) (A) (A) (A) (A) (A) (A) (A)
                 (A) (A) (A) (A) (A) (A) (A) (A) (A) (A) (A) (A)
                 (A) (A) (A) (A) (A) (A) (A) (A) (A) (A) (A) (A)
                 (A) (A) (A) (A) (A) (A) (A) (A) (A) (A) (A) (A)
                 (A) (A) (A) (A) (A) (A) (A) (A) (A) (A) (A) (A)
                 (A) (A) (A) (A) (A) (A) (A) (A) (A) (A) (A) (A)
                 (A) (A) (A) (A) (A) (A) (A) (A) (A) (A) (A) (A)
                 (A) (A) (A) (A) (A) (A) (A) (A) (A) (A) (A) (A)
                 (A) (A) (A)
 The electronic state is 1-A.
 Alpha  occ. eigenvalues --  -10.19163 -10.19161 -10.19145 -10.19132 -10.19118
 Alpha  occ. eigenvalues --  -10.19112 -10.19049 -10.19038 -10.18972 -10.18970
 Alpha  occ. eigenvalues --  -10.17947 -10.17944  -0.82624  -0.81361  -0.79354
 Alpha  occ. eigenvalues --   -0.76672  -0.73467  -0.70266  -0.62472  -0.58595
 Alpha  occ. eigenvalues --   -0.56783  -0.55817  -0.54907  -0.54528  -0.48412
 Alpha  occ. eigenvalues --   -0.47360  -0.45777  -0.45014  -0.41813  -0.41194
 Alpha  occ. eigenvalues --   -0.38904  -0.38648  -0.37489  -0.37263  -0.36202
 Alpha  occ. eigenvalues --   -0.34951  -0.34886  -0.33393  -0.33288  -0.30716
 Alpha  occ. eigenvalues --   -0.27243  -0.23033  -0.18707
 Alpha virt. eigenvalues --   -0.05938  -0.01182   0.03665   0.07384   0.08683
 Alpha virt. eigenvalues --    0.09387   0.09905   0.10373   0.12489   0.12639
 Alpha virt. eigenvalues --    0.12935   0.14343   0.14439   0.15329   0.16062
 Alpha virt. eigenvalues --    0.16203   0.18858   0.19737   0.20045   0.20704
 Alpha virt. eigenvalues --    0.27217   0.31448   0.31549   0.31966   0.35186
 Alpha virt. eigenvalues --    0.35655   0.37286   0.38029   0.40595   0.41461
 Alpha virt. eigenvalues --    0.42161   0.47142   0.49761   0.51868   0.52859
 Alpha virt. eigenvalues --    0.54549   0.54571   0.56907   0.57293   0.57881
 Alpha virt. eigenvalues --    0.58880   0.58893   0.59825   0.59843   0.60900
 Alpha virt. eigenvalues --    0.62398   0.62751   0.63271   0.63866   0.65650
 Alpha virt. eigenvalues --    0.66546   0.68598   0.69272   0.69473   0.70003
 Alpha virt. eigenvalues --    0.74267   0.74639   0.78925   0.80426   0.82644
 Alpha virt. eigenvalues --    0.83555   0.84270   0.84732   0.85567   0.86521
 Alpha virt. eigenvalues --    0.86665   0.87284   0.87857   0.89172   0.91405
 Alpha virt. eigenvalues --    0.91822   0.92230   0.93668   0.96913   0.97464
 Alpha virt. eigenvalues --    1.03777   1.03823   1.06483   1.06523   1.07955
 Alpha virt. eigenvalues --    1.08700   1.10056   1.13139   1.18790   1.19616
 Alpha virt. eigenvalues --    1.25930   1.29611   1.29940   1.30054   1.30587
 Alpha virt. eigenvalues --    1.31364   1.32065   1.32457   1.32965   1.34265
 Alpha virt. eigenvalues --    1.36395   1.38192   1.40341   1.42109   1.42832
 Alpha virt. eigenvalues --    1.45667   1.48546   1.50839   1.50997   1.51680
 Alpha virt. eigenvalues --    1.51931   1.76323   1.76488   1.76607   1.77449
 Alpha virt. eigenvalues --    1.77782   1.83836   1.85984   1.86494   1.89002
 Alpha virt. eigenvalues --    1.92185   1.92964   1.93890   1.95379   1.95867
 Alpha virt. eigenvalues --    1.96250   1.98349   1.98431   2.02765   2.03277
 Alpha virt. eigenvalues --    2.04914   2.08524   2.09806   2.10896   2.13093
 Alpha virt. eigenvalues --    2.16739   2.17351   2.18657   2.19230   2.21573
 Alpha virt. eigenvalues --    2.23034   2.23302   2.27039   2.27188   2.31395
 Alpha virt. eigenvalues --    2.35877   2.39083   2.41396   2.41802   2.46047
 Alpha virt. eigenvalues --    2.47156   2.48145   2.49409   2.49429   2.49926
 Alpha virt. eigenvalues --    2.51556   2.51738   2.52772   2.56563   2.57089
 Alpha virt. eigenvalues --    2.58153   2.58291   2.59554   2.62288   2.64043
 Alpha virt. eigenvalues --    2.66103   2.66915   2.67799   2.68546   2.70181
 Alpha virt. eigenvalues --    2.70724   2.71329   2.73195   2.75896   2.78415
 Alpha virt. eigenvalues --    2.81628   2.86719   2.87880   2.88741   2.91475
 Alpha virt. eigenvalues --    2.93338   2.93779   2.97167   2.97702   2.99642
 Alpha virt. eigenvalues --    2.99992   3.27962   3.28060   3.35547   3.36964
 Alpha virt. eigenvalues --    3.39218   3.41958   3.45948   3.51538   3.54843
 Alpha virt. eigenvalues --    3.60600   3.62747   3.66136   3.70543   3.71381
 Alpha virt. eigenvalues --    4.13687   4.13900   4.14416   4.15699   4.18328
 Alpha virt. eigenvalues --    4.24060   4.28455   4.37320   4.47531   4.58213
 Alpha virt. eigenvalues --    4.67637   4.74059
          Condensed to atoms (all electrons):
               1          2          3          4          5          6
     1  C    4.965372   0.618785  -0.031433   0.002702  -0.000277   0.000005
     2  C    0.618785   4.740050   0.420887  -0.020002   0.004045  -0.000268
     3  C   -0.031433   0.420887   4.861231   0.577987  -0.018307   0.002504
     4  C    0.002702  -0.020002   0.577987   4.868809   0.392486  -0.016587
     5  C   -0.000277   0.004045  -0.018307   0.392486   4.887157   0.564089
     6  C    0.000005  -0.000268   0.002504  -0.016587   0.564089   4.881888
     7  C   -0.000000   0.000002  -0.000255   0.003651  -0.017099   0.394523
     8  C   -0.000000  -0.000000   0.000004  -0.000256   0.002519  -0.017164
     9  C    0.000000   0.000000  -0.000000   0.000002  -0.000256   0.003652
    10  C    0.000000   0.000000  -0.000000  -0.000000   0.000004  -0.000255
    11  C   -0.000000   0.000000   0.000000   0.000000  -0.000000   0.000002
    12  C    0.000000  -0.000000   0.000000   0.000000  -0.000000  -0.000000
    13  H    0.369509  -0.020435   0.004034  -0.000224   0.000003  -0.000000
    14  H    0.382767  -0.035919  -0.012738   0.000562  -0.000000  -0.000000
    15  H   -0.050973   0.381970  -0.047468  -0.005755   0.000269  -0.000005
    16  H   -0.005165  -0.046692   0.379528  -0.051040  -0.009567   0.000550
    17  H    0.000486  -0.009055  -0.053563   0.381366  -0.048006  -0.005248
    18  H   -0.000003   0.000238  -0.005233  -0.048028   0.381125  -0.052714
    19  H    0.000000  -0.000004   0.000532  -0.009209  -0.052895   0.380983
    20  H    0.000000  -0.000000  -0.000004   0.000250  -0.005275  -0.047922
    21  H    0.000000   0.000000  -0.000000  -0.000004   0.000541  -0.009275
    22  H   -0.000000  -0.000000   0.000000  -0.000000  -0.000004   0.000252
    23  H    0.000000  -0.000000   0.000000   0.000000  -0.000000  -0.000004
    24  H   -0.000000   0.000000   0.000000  -0.000000   0.000000  -0.000000
    25  H    0.000000  -0.000000   0.000000  -0.000000   0.000000   0.000000
    26  H    0.000000   0.000000   0.000000   0.000000  -0.000000   0.000000
               7          8          9         10         11         12
     1  C   -0.000000  -0.000000   0.000000   0.000000  -0.000000   0.000000
     2  C    0.000002  -0.000000   0.000000   0.000000   0.000000  -0.000000
     3  C   -0.000255   0.000004  -0.000000  -0.000000   0.000000   0.000000
     4  C    0.003651  -0.000256   0.000002  -0.000000   0.000000   0.000000
     5  C   -0.017099   0.002519  -0.000256   0.000004  -0.000000  -0.000000
     6  C    0.394523  -0.017164   0.003652  -0.000255   0.000002  -0.000000
     7  C    4.881749   0.564092  -0.016527   0.002502  -0.000268   0.000005
     8  C    0.564092   4.887295   0.392482  -0.018354   0.004047  -0.000277
     9  C   -0.016527   0.392482   4.868720   0.577994  -0.019965   0.002698
    10  C    0.002502  -0.018354   0.577994   4.861308   0.420886  -0.031449
    11  C   -0.000268   0.004047  -0.019965   0.420886   4.740006   0.618793
    12  C    0.000005  -0.000277   0.002698  -0.031449   0.618793   4.965406
    13  H    0.000000  -0.000000   0.000000   0.000000   0.000000   0.000000
    14  H    0.000000   0.000000  -0.000000   0.000000  -0.000000   0.000000
    15  H   -0.000000   0.000000  -0.000000   0.000000   0.000000  -0.000000
    16  H   -0.000004  -0.000000   0.000000   0.000000  -0.000000   0.000000
    17  H    0.000251  -0.000004  -0.000000   0.000000  -0.000000  -0.000000
    18  H   -0.009287   0.000542  -0.000004  -0.000000   0.000000   0.000000
    19  H   -0.047894  -0.005269   0.000248  -0.000004  -0.000000   0.000000
    20  H    0.381001  -0.052921  -0.009223   0.000533  -0.000004   0.000000
    21  H   -0.052690   0.381107  -0.048004  -0.005227   0.000237  -0.000003
    22  H   -0.005253  -0.048027   0.381377  -0.053580  -0.009066   0.000487
    23  H    0.000549  -0.009560  -0.051027   0.379518  -0.046681  -0.005160
    24  H   -0.000005   0.000269  -0.005756  -0.047476   0.381971  -0.050976
    25  H   -0.000000  -0.000000   0.000562  -0.012736  -0.035916   0.382767
    26  H   -0.000000   0.000003  -0.000224   0.004035  -0.020431   0.369505
              13         14         15         16         17         18
     1  C    0.369509   0.382767  -0.050973  -0.005165   0.000486  -0.000003
     2  C   -0.020435  -0.035919   0.381970  -0.046692  -0.009055   0.000238
     3  C    0.004034  -0.012738  -0.047468   0.379528  -0.053563  -0.005233
     4  C   -0.000224   0.000562  -0.005755  -0.051040   0.381366  -0.048028
     5  C    0.000003  -0.000000   0.000269  -0.009567  -0.048006   0.381125
     6  C   -0.000000  -0.000000  -0.000005   0.000550  -0.005248  -0.052714
     7  C    0.000000   0.000000  -0.000000  -0.000004   0.000251  -0.009287
     8  C   -0.000000   0.000000   0.000000  -0.000000  -0.000004   0.000542
     9  C    0.000000  -0.000000  -0.000000   0.000000  -0.000000  -0.000004
    10  C    0.000000   0.000000   0.000000   0.000000   0.000000  -0.000000
    11  C    0.000000  -0.000000   0.000000  -0.000000  -0.000000   0.000000
    12  C    0.000000   0.000000  -0.000000   0.000000  -0.000000   0.000000
    13  H    0.602012  -0.042376  -0.008095   0.000025  -0.000008   0.000000
    14  H   -0.042376   0.601464   0.005978   0.004586   0.000014   0.000001
    15  H   -0.008095   0.005978   0.631664   0.004338   0.004185   0.000005
    16  H    0.000025   0.004586   0.004338   0.631542   0.006057   0.004055
    17  H   -0.000008   0.000014   0.004185   0.006057   0.634003   0.004269
    18  H    0.000000   0.000001   0.000005   0.004055   0.004269   0.634110
    19  H   -0.000000  -0.000000   0.000001   0.000014   0.004060   0.006062
    20  H    0.000000  -0.000000  -0.000000   0.000001   0.000005   0.004056
    21  H   -0.000000   0.000000  -0.000000  -0.000000   0.000001   0.000014
    22  H    0.000000   0.000000   0.000000  -0.000000  -0.000000   0.000001
    23  H   -0.000000  -0.000000   0.000000   0.000000  -0.000000  -0.000000
    24  H    0.000000   0.000000   0.000000   0.000000   0.000000  -0.000000
    25  H    0.000000   0.000000   0.000000  -0.000000   0.000000   0.000000
    26  H    0.000000   0.000000   0.000000  -0.000000   0.000000  -0.000000
              19         20         21         22         23         24
     1  C    0.000000   0.000000   0.000000  -0.000000   0.000000  -0.000000
     2  C   -0.000004  -0.000000   0.000000  -0.000000  -0.000000   0.000000
     3  C    0.000532  -0.000004  -0.000000   0.000000   0.000000   0.000000
     4  C   -0.009209   0.000250  -0.000004  -0.000000   0.000000  -0.000000
     5  C   -0.052895  -0.005275   0.000541  -0.000004  -0.000000   0.000000
     6  C    0.380983  -0.047922  -0.009275   0.000252  -0.000004  -0.000000
     7  C   -0.047894   0.381001  -0.052690  -0.005253   0.000549  -0.000005
     8  C   -0.005269  -0.052921   0.381107  -0.048027  -0.009560   0.000269
     9  C    0.000248  -0.009223  -0.048004   0.381377  -0.051027  -0.005756
    10  C   -0.000004   0.000533  -0.005227  -0.053580   0.379518  -0.047476
    11  C   -0.000000  -0.000004   0.000237  -0.009066  -0.046681   0.381971
    12  C    0.000000   0.000000  -0.000003   0.000487  -0.005160  -0.050976
    13  H   -0.000000   0.000000  -0.000000   0.000000  -0.000000   0.000000
    14  H   -0.000000  -0.000000   0.000000   0.000000  -0.000000   0.000000
    15  H    0.000001  -0.000000  -0.000000   0.000000   0.000000   0.000000
    16  H    0.000014   0.000001  -0.000000  -0.000000   0.000000   0.000000
    17  H    0.004060   0.000005   0.000001  -0.000000  -0.000000   0.000000
    18  H    0.006062   0.004056   0.000014   0.000001  -0.000000  -0.000000
    19  H    0.634472   0.004270   0.004049   0.000005   0.000001  -0.000000
    20  H    0.004270   0.634529   0.006062   0.004068   0.000014   0.000001
    21  H    0.004049   0.006062   0.634068   0.004268   0.004050   0.000005
    22  H    0.000005   0.004068   0.004268   0.634052   0.006058   0.004190
    23  H    0.000001   0.000014   0.004050   0.006058   0.631530   0.004337
    24  H   -0.000000   0.000001   0.000005   0.004190   0.004337   0.631691
    25  H   -0.000000  -0.000000   0.000001   0.000014   0.004582   0.005979
    26  H    0.000000  -0.000000   0.000000  -0.000008   0.000025  -0.008100
              25         26
     1  C    0.000000   0.000000
     2  C   -0.000000   0.000000
     3  C    0.000000   0.000000
     4  C   -0.000000   0.000000
     5  C    0.000000  -0.000000
     6  C    0.000000   0.000000
     7  C   -0.000000  -0.000000
     8  C   -0.000000   0.000003
     9  C    0.000562  -0.000224
    10  C   -0.012736   0.004035
    11  C   -0.035916  -0.020431
    12  C    0.382767   0.369505
    13  H    0.000000   0.000000
    14  H    0.000000   0.000000
    15  H    0.000000   0.000000
    16  H   -0.000000  -0.000000
    17  H    0.000000   0.000000
    18  H    0.000000  -0.000000
    19  H   -0.000000   0.000000
    20  H   -0.000000  -0.000000
    21  H    0.000001   0.000000
    22  H    0.000014  -0.000008
    23  H    0.004582   0.000025
    24  H    0.005979  -0.008100
    25  H    0.601476  -0.042377
    26  H   -0.042377   0.602032
 Mulliken charges:
               1
     1  C   -0.251775
     2  C   -0.033601
     3  C   -0.077706
     4  C   -0.076711
     5  C   -0.080552
     6  C   -0.079006
     7  C   -0.079044
     8  C   -0.080528
     9  C   -0.076749
    10  C   -0.077701
    11  C   -0.033612
    12  C   -0.251795
    13  H    0.095555
    14  H    0.095659
    15  H    0.083886
    16  H    0.081772
    17  H    0.081188
    18  H    0.080791
    19  H    0.080578
    20  H    0.080559
    21  H    0.080800
    22  H    0.081167
    23  H    0.081768
    24  H    0.083870
    25  H    0.095648
    26  H    0.095540
 Sum of Mulliken charges =  -0.00000
 Mulliken charges with hydrogens summed into heavy atoms:
               1
     1  C   -0.060561
     2  C    0.050285
     3  C    0.004066
     4  C    0.004477
     5  C    0.000238
     6  C    0.001572
     7  C    0.001515
     8  C    0.000272
     9  C    0.004418
    10  C    0.004067
    11  C    0.050259
    12  C   -0.060608
 Electronic spatial extent (au):  <R**2>=           6055.9411
 Charge=             -0.0000 electrons
 Dipole moment (field-independent basis, Debye):
    X=              0.0027    Y=              0.0004    Z=              0.0004  Tot=              0.0028
 Quadrupole moment (field-independent basis, Debye-Ang):
   XX=            -69.3226   YY=            -63.7904   ZZ=            -79.3805
   XY=              0.8237   XZ=              0.0000   YZ=              0.0001
 Traceless Quadrupole moment (field-independent basis, Debye-Ang):
   XX=              1.5085   YY=              7.0408   ZZ=             -8.5493
   XY=              0.8237   XZ=              0.0000   YZ=              0.0001
 Octapole moment (field-independent basis, Debye-Ang**2):
  XXX=              0.1177  YYY=              0.0056  ZZZ=             -0.0011  XYY=             -0.0040
  XXY=              0.0210  XXZ=              0.0493  XZZ=              0.0022  YZZ=              0.0008
  YYZ=             -0.0001  XYZ=             -0.0194
 Hexadecapole moment (field-independent basis, Debye-Ang**3):
 XXXX=          -7741.1292 YYYY=           -202.4771 ZZZZ=            -82.2817 XXXY=             60.1633
 XXXZ=              0.0001 YYYX=             -0.4196 YYYZ=              0.0001 ZZZX=              0.0000
 ZZZY=              0.0001 XXYY=          -1259.0142 XXZZ=          -1527.4908 YYZZ=            -53.4112
 XXYZ=              0.0010 YYXZ=              0.0000 ZZXY=              0.3658
 N-N= 5.347660779491D+02 E-N=-2.146378522940D+03  KE= 4.610138404650D+02
 Calling FoFJK, ICntrl=      2127 FMM=F ISym2X=0 I1Cent= 0 IOpClX= 0 NMat=1 NMatS=1 NMatT=0.
 ***** Axes restored to original set *****
 -------------------------------------------------------------------
 Center     Atomic                   Forces (Hartrees/Bohr)
 Number     Number              X              Y              Z
 -------------------------------------------------------------------
      1        6          -0.008285267    0.004145782   -0.000208283
      2        6           0.010433710   -0.022528771    0.001362233
      3        6          -0.020820880    0.023968024   -0.001383652
      4        6           0.024147089   -0.025957063    0.001487144
      5        6          -0.026000300    0.025273851   -0.001428473
      6        6           0.026510932   -0.025705114    0.001450837
      7        6          -0.026514478    0.025711866   -0.001447899
      8        6           0.025977393   -0.025295230    0.001423726
      9        6          -0.024127811    0.025987001   -0.001479839
     10        6           0.020788782   -0.024001552    0.001377952
     11        6          -0.010402875    0.022548032   -0.001365736
     12        6           0.008287253   -0.004163027    0.000201890
     13        1          -0.002768636   -0.003505255    0.000241231
     14        1          -0.002392104    0.000499886   -0.000014872
     15        1           0.005365620    0.000161758   -0.000045458
     16        1          -0.003403139    0.000596148   -0.000013477
     17        1           0.003188417   -0.000448042    0.000007650
     18        1          -0.003190094    0.000502420   -0.000007906
     19        1           0.003200254   -0.000474732    0.000008851
     20        1          -0.003201243    0.000472989   -0.000005103
     21        1           0.003193157   -0.000507121    0.000010136
     22        1          -0.003192391    0.000452333   -0.000003433
     23        1           0.003407832   -0.000599745    0.000013346
     24        1          -0.005370059   -0.000146023    0.000052331
     25        1           0.002394375   -0.000495733    0.000013893
     26        1           0.002774462    0.003507317   -0.000247089
 -------------------------------------------------------------------
 Cartesian Forces:  Max     0.026514478 RMS     0.012147108

 GradGradGradGradGradGradGradGradGradGradGradGradGradGradGradGradGradGrad
 Berny optimization.
 FormGI is forming the generalized inverse of G from B-inverse, IUseBI=4.
 Internal  Forces:  Max     0.020547258 RMS     0.007459876
 Search for a local minimum.
 Step number   1 out of a maximum of  115
 All quantities printed in internal units (Hartrees-Bohrs-Radians)
 Mixed Optimization -- RFO/linear search
 Second derivative matrix not updated -- first step.
 ITU=  0
     Eigenvalues ---    0.01060   0.01060   0.01060   0.01066   0.01066
     Eigenvalues ---    0.01978   0.01978   0.01978   0.01978   0.01979
     Eigenvalues ---    0.01979   0.01982   0.01983   0.01999   0.01999
     Eigenvalues ---    0.02888   0.02888   0.02888   0.02889   0.02949
     Eigenvalues ---    0.02949   0.02949   0.02949   0.16000   0.16000
     Eigenvalues ---    0.16000   0.16000   0.16000   0.16000   0.16000
     Eigenvalues ---    0.16000   0.16000   0.16000   0.16000   0.16000
     Eigenvalues ---    0.16000   0.16000   0.22000   0.22000   0.22000
     Eigenvalues ---    0.22000   0.22000   0.22000   0.22000   0.22000
     Eigenvalues ---    0.22000   0.22000   0.34822   0.34824   0.34825
     Eigenvalues ---    0.34879   0.34882   0.35078   0.35079   0.35079
     Eigenvalues ---    0.35079   0.35081   0.35081   0.35081   0.35081
     Eigenvalues ---    0.35191   0.35192   0.35271   0.35272   0.35371
     Eigenvalues ---    0.35372   0.57297   0.57299   0.57306   0.57310
     Eigenvalues ---    0.58340   0.58343
 RFO step:  Lambda=-1.84952112D-02 EMin= 1.05952535D-02
 Linear search not attempted -- first point.
 Iteration  1 RMS(Cart)=  0.06175596 RMS(Int)=  0.00049023
 Iteration  2 RMS(Cart)=  0.00138470 RMS(Int)=  0.00000039
 Iteration  3 RMS(Cart)=  0.00000017 RMS(Int)=  0.00000038
 Variable       Old X    -DE/DX   Delta X   Delta X   Delta X     New X
                                 (Linear)    (Quad)   (Total)
    R1        2.52279   0.01182   0.00000   0.01964   0.01964   2.54243
    R2        2.05076   0.00017   0.00000   0.00047   0.00047   2.05122
    R3        2.05237  -0.00020   0.00000  -0.00053  -0.00053   2.05184
    R4        2.79166  -0.01409   0.00000  -0.03836  -0.03836   2.75330
    R5        2.05364   0.00063   0.00000   0.00169   0.00169   2.05534
    R6        2.53138   0.01858   0.00000   0.03141   0.03141   2.56280
    R7        2.05548  -0.00026   0.00000  -0.00070  -0.00070   2.05478
    R8        2.79261  -0.01770   0.00000  -0.04825  -0.04825   2.74435
    R9        2.05546  -0.00014   0.00000  -0.00037  -0.00037   2.05509
   R10        2.53146   0.02054   0.00000   0.03472   0.03472   2.56619
   R11        2.05544  -0.00019   0.00000  -0.00051  -0.00051   2.05493
   R12        2.79261  -0.01836   0.00000  -0.05007  -0.05007   2.74254
   R13        2.05544  -0.00016   0.00000  -0.00043  -0.00043   2.05501
   R14        2.53144   0.02055   0.00000   0.03474   0.03474   2.56618
   R15        2.05544  -0.00016   0.00000  -0.00042  -0.00042   2.05502
   R16        2.79265  -0.01771   0.00000  -0.04828  -0.04828   2.74437
   R17        2.05544  -0.00019   0.00000  -0.00052  -0.00052   2.05492
   R18        2.53134   0.01860   0.00000   0.03145   0.03145   2.56279
   R19        2.05547  -0.00014   0.00000  -0.00037  -0.00037   2.05510
   R20        2.79172  -0.01410   0.00000  -0.03840  -0.03840   2.75332
   R21        2.05547  -0.00026   0.00000  -0.00070  -0.00070   2.05477
   R22        2.52276   0.01184   0.00000   0.01967   0.01967   2.54242
   R23        2.05366   0.00062   0.00000   0.00168   0.00168   2.05534
   R24        2.05235  -0.00019   0.00000  -0.00051  -0.00051   2.05184
   R25        2.05077   0.00017   0.00000   0.00045   0.00045   2.05122
    A1        2.09389   0.00444   0.00000   0.02490   0.02490   2.11879
    A2        2.11473   0.00028   0.00000   0.00155   0.00155   2.11628
    A3        2.07457  -0.00472   0.00000  -0.02645  -0.02645   2.04812
    A4        2.11391   0.01182   0.00000   0.04956   0.04956   2.16347
    A5        2.07627  -0.00044   0.00000   0.00589   0.00589   2.08216
    A6        2.09301  -0.01138   0.00000  -0.05545  -0.05545   2.03755
    A7        2.11062   0.01214   0.00000   0.05091   0.05091   2.16153
    A8        2.08135  -0.00961   0.00000  -0.04529  -0.04529   2.03605
    A9        2.09122  -0.00253   0.00000  -0.00562  -0.00562   2.08560
   A10        2.11068   0.01269   0.00000   0.05319   0.05319   2.16387
   A11        2.09052  -0.00304   0.00000  -0.00807  -0.00807   2.08245
   A12        2.08199  -0.00965   0.00000  -0.04512  -0.04512   2.03687
   A13        2.11111   0.01239   0.00000   0.05195   0.05195   2.16306
   A14        2.08159  -0.00951   0.00000  -0.04454  -0.04454   2.03705
   A15        2.09049  -0.00288   0.00000  -0.00741  -0.00741   2.08308
   A16        2.11057   0.01259   0.00000   0.05280   0.05280   2.16338
   A17        2.09071  -0.00298   0.00000  -0.00780  -0.00780   2.08291
   A18        2.08190  -0.00962   0.00000  -0.04501  -0.04501   2.03690
   A19        2.11113   0.01251   0.00000   0.05247   0.05247   2.16360
   A20        2.08159  -0.00958   0.00000  -0.04484  -0.04484   2.03675
   A21        2.09047  -0.00293   0.00000  -0.00762  -0.00762   2.08284
   A22        2.11060   0.01246   0.00000   0.05226   0.05226   2.16287
   A23        2.09070  -0.00292   0.00000  -0.00755  -0.00755   2.08315
   A24        2.08189  -0.00955   0.00000  -0.04471  -0.04471   2.03717
   A25        2.11108   0.01263   0.00000   0.05296   0.05296   2.16403
   A26        2.08177  -0.00963   0.00000  -0.04503  -0.04503   2.03675
   A27        2.09034  -0.00300   0.00000  -0.00793  -0.00793   2.08240
   A28        2.11034   0.01218   0.00000   0.05108   0.05108   2.16142
   A29        2.09132  -0.00255   0.00000  -0.00567  -0.00567   2.08565
   A30        2.08153  -0.00964   0.00000  -0.04541  -0.04541   2.03612
   A31        2.11405   0.01180   0.00000   0.04949   0.04949   2.16354
   A32        2.09294  -0.01138   0.00000  -0.05544  -0.05544   2.03750
   A33        2.07620  -0.00042   0.00000   0.00595   0.00595   2.08215
   A34        2.11475   0.00028   0.00000   0.00155   0.00155   2.11630
   A35        2.09382   0.00445   0.00000   0.02494   0.02494   2.11876
   A36        2.07462  -0.00473   0.00000  -0.02648  -0.02648   2.04813
    D1       -3.14156  -0.00000   0.00000  -0.00002  -0.00002  -3.14157
    D2       -0.00001   0.00000   0.00000   0.00001   0.00001  -0.00000
    D3        0.00001   0.00000   0.00000   0.00001   0.00001   0.00002
    D4        3.14156   0.00000   0.00000   0.00003   0.00003   3.14159
    D5        3.14140   0.00000   0.00000   0.00007   0.00007   3.14147
    D6       -0.00010   0.00000   0.00000   0.00002   0.00002  -0.00009
    D7       -0.00015   0.00000   0.00000   0.00005   0.00005  -0.00010
    D8        3.14153  -0.00000   0.00000  -0.00001  -0.00001   3.14152
    D9       -3.14146  -0.00000   0.00000  -0.00006  -0.00006  -3.14152
   D10        0.00001   0.00000   0.00000   0.00001   0.00001   0.00002
   D11        0.00004  -0.00000   0.00000  -0.00001  -0.00001   0.00004
   D12        3.14151   0.00000   0.00000   0.00007   0.00007   3.14158
   D13        3.14118   0.00001   0.00000   0.00016   0.00016   3.14134
   D14       -0.00025   0.00000   0.00000   0.00006   0.00006  -0.00019
   D15       -0.00028   0.00000   0.00000   0.00008   0.00008  -0.00020
   D16        3.14147  -0.00000   0.00000  -0.00002  -0.00002   3.14145
   D17       -3.14137  -0.00000   0.00000  -0.00010  -0.00010  -3.14148
   D18        0.00004   0.00000   0.00000   0.00000   0.00000   0.00005
   D19        0.00006  -0.00000   0.00000  -0.00000  -0.00000   0.00005
   D20        3.14147   0.00000   0.00000   0.00010   0.00010   3.14158
   D21        3.14109   0.00001   0.00000   0.00020   0.00019   3.14129
   D22       -0.00033   0.00000   0.00000   0.00009   0.00009  -0.00024
   D23       -0.00033   0.00000   0.00000   0.00009   0.00009  -0.00024
   D24        3.14144  -0.00000   0.00000  -0.00002  -0.00002   3.14142
   D25       -3.14137  -0.00000   0.00000  -0.00010  -0.00010  -3.14148
   D26        0.00006  -0.00000   0.00000  -0.00000  -0.00000   0.00005
   D27        0.00004   0.00000   0.00000   0.00000   0.00000   0.00005
   D28        3.14147   0.00000   0.00000   0.00010   0.00010   3.14158
   D29        3.14118   0.00001   0.00000   0.00016   0.00016   3.14134
   D30       -0.00028   0.00000   0.00000   0.00008   0.00008  -0.00020
   D31       -0.00025   0.00000   0.00000   0.00006   0.00006  -0.00019
   D32        3.14147  -0.00000   0.00000  -0.00002  -0.00002   3.14145
   D33       -3.14146  -0.00000   0.00000  -0.00006  -0.00006  -3.14152
   D34        0.00004  -0.00000   0.00000  -0.00001  -0.00001   0.00004
   D35        0.00001   0.00000   0.00000   0.00001   0.00001   0.00002
   D36        3.14151   0.00000   0.00000   0.00007   0.00007   3.14158
   D37        3.14140   0.00000   0.00000   0.00007   0.00007   3.14147
   D38       -0.00015   0.00000   0.00000   0.00005   0.00005  -0.00010
   D39       -0.00010   0.00000   0.00000   0.00002   0.00002  -0.00009
   D40        3.14153  -0.00000   0.00000  -0.00001  -0.00001   3.14152
   D41        0.00001   0.00000   0.00000   0.00001   0.00001   0.00002
   D42       -3.14156  -0.00000   0.00000  -0.00002  -0.00002  -3.14157
   D43        3.14156   0.00000   0.00000   0.00003   0.00003   3.14159
   D44       -0.00001   0.00000   0.00000   0.00001   0.00001  -0.00000
         Item               Value     Threshold  Converged?
 Maximum Force            0.020547     0.000450     NO 
 RMS     Force            0.007460     0.000300     NO 
 Maximum Displacement     0.227292     0.001800     NO 
 RMS     Displacement     0.060614     0.001200     NO 
 Predicted change in Energy=-9.871633D-03
 GradGradGradGradGradGradGradGradGradGradGradGradGradGradGradGradGradGrad

                          Input orientation:                          
 ---------------------------------------------------------------------
 Center     Atomic      Atomic             Coordinates (Angstroms)
 Number     Number       Type             X           Y           Z
 ---------------------------------------------------------------------
      1          6           0       -2.366050    1.171896    0.012582
      2          6           0       -1.120124    1.677949   -0.028224
      3          6           0        0.089509    0.866947    0.015011
      4          6           0        1.344421    1.379478   -0.026408
      5          6           0        2.552012    0.573922    0.016404
      6          6           0        3.808166    1.088123   -0.025413
      7          6           0        5.015212    0.283468    0.017206
      8          6           0        6.271475    0.797371   -0.024938
      9          6           0        7.478735   -0.008708    0.017631
     10          6           0        8.733936    0.503035   -0.024650
     11          6           0        9.943014   -0.308832    0.018186
     12          6           0       11.189316    0.196198   -0.023735
     13          1           0       -3.239308    1.815651   -0.022354
     14          1           0       -2.537530    0.101975    0.081850
     15          1           0       -0.985085    2.754931   -0.097693
     16          1           0       -0.047111   -0.209535    0.084527
     17          1           0        1.477659    2.456551   -0.095949
     18          1           0        2.418977   -0.503082    0.086077
     19          1           0        3.941029    2.165186   -0.095102
     20          1           0        4.882186   -0.793570    0.087062
     21          1           0        6.404822    1.874318   -0.094804
     22          1           0        7.344921   -1.085683    0.087641
     23          1           0        8.871229    1.579397   -0.094657
     24          1           0        9.807174   -1.385675    0.088281
     25          1           0       11.361624    1.265943   -0.093657
     26          1           0       12.062062   -0.448268    0.010917
 ---------------------------------------------------------------------
                    Distance matrix (angstroms):
                    1          2          3          4          5
     1  C    0.000000
     2  C    1.345394   0.000000
     3  C    2.474423   1.456985   0.000000
     4  C    3.716478   2.482553   1.356174   0.000000
     5  C    4.954283   3.834768   2.479876   1.452250   0.000000
     6  C    6.174901   4.963461   3.725448   2.480913   1.357967
     7  C    7.434537   6.291977   4.960141   3.831167   2.480265
     8  C    8.645722   7.443868   6.182487   4.961322   3.726399
     9  C    9.915324   8.762836   7.440930   6.289579   4.961055
    10  C   11.120182   9.923857   8.652175   7.441310   6.182467
    11  C   12.397808  11.240217   9.923408   8.762887   7.443532
    12  C   13.590484  12.398303  11.120122   9.915751   8.645653
    13  H    1.085459   2.123661   3.461569   4.604437   5.923072
    14  H    1.085787   2.122463   2.736966   4.088188   5.111796
    15  H    2.103622   1.087637   2.175302   2.706207   4.157028
    16  H    2.700186   2.174090   1.087342   2.115096   2.715489
    17  H    4.054161   2.712801   2.113318   1.087508   2.170518
    18  H    5.070250   4.158749   2.703415   2.170565   1.087423
    19  H    6.385724   5.084992   4.065926   2.713748   2.115166
    20  H    7.510361   6.492259   5.072698   4.153408   2.702728
    21  H    8.799609   7.527802   6.396095   5.084997   4.067867
    22  H    9.970218   8.905508   7.513923   6.488145   5.072607
    23  H   11.245176   9.992060   8.811255   7.529771   6.399673
    24  H   12.439223  11.349238   9.975605   8.903786   7.515488
    25  H   13.728407  12.488718  11.279698  10.018072   8.837436
    26  H   14.518793  13.352616  12.044577  10.872436   9.564829
                    6          7          8          9         10
     6  C    0.000000
     7  C    1.451290   0.000000
     8  C    2.480409   1.357965   0.000000
     9  C    3.831184   2.480790   1.452257   0.000000
    10  C    4.960397   3.725436   2.479990   1.356170   0.000000
    11  C    6.292038   4.963271   3.834807   2.482488   1.456994
    12  C    7.434844   6.174857   4.954449   3.716464   2.474477
    13  H    7.084928   8.395609   9.565140  10.872274  12.044981
    14  H    6.422761   7.555199   8.837056  10.017083  11.279102
    15  H    5.075306   6.490369   7.516316   8.904339   9.976761
    16  H    4.069295   5.086717   6.399247   7.528822   8.810588
    17  H    2.703485   4.153236   5.073322   6.488707   7.514976
    18  H    2.115233   2.713639   4.067584   5.084314   6.395564
    19  H    1.087462   2.169641   2.703113   4.153780   5.073428
    20  H    2.169548   1.087468   2.115126   2.713466   4.065666
    21  H    2.713952   2.115269   1.087418   2.170649   2.703723
    22  H    4.152932   2.703162   2.170449   1.087513   2.113291
    23  H    5.087312   4.069498   2.715722   2.115118   1.087339
    24  H    6.490046   5.074840   4.156883   2.706041   2.175274
    25  H    7.555859   6.422967   5.112133   4.088269   2.737067
    26  H    8.395750   7.084743   5.923157   4.604361   3.461598
                   11         12         13         14         15
    11  C    0.000000
    12  C    1.345392   0.000000
    13  H   13.352479  14.519223   0.000000
    14  H   12.487466  13.727576   1.854733   0.000000
    15  H   11.350041  12.440604   2.443245   3.079042   0.000000
    16  H    9.990839  11.244271   3.781921   2.509828   3.114653
    17  H    8.906324   9.971493   4.760877   4.658045   2.480755
    18  H    7.526851   8.798858   6.115919   4.993303   4.715513
    19  H    6.492875   7.511303   7.189208   6.801462   4.961291
    20  H    5.084456   6.385280   8.531042   7.473568   6.859364
    21  H    4.159053   5.070752   9.644580   9.118007   7.442191
    22  H    2.712639   4.054010  10.975233   9.953562   9.174621
    23  H    2.174136   2.700333  12.113057  11.505377   9.926168
    24  H    1.087639   2.103613  13.433966  12.434020  11.560799
    25  H    2.122470   1.085786  14.611451  13.948911  12.436171
    26  H    2.123642   1.085460  15.467979  14.610129  13.435041
                   16         17         18         19         20
    16  H    0.000000
    17  H    3.076607   0.000000
    18  H    2.483498   3.111051   0.000000
    19  H    4.645086   2.480541   3.077194   0.000000
    20  H    4.963776   4.710369   2.480279   3.110177   0.000000
    21  H    6.782480   4.961444   4.644535   2.480903   3.077193
    22  H    7.443774   6.856084   4.960277   4.710417   2.479998
    23  H    9.097756   7.445419   6.782399   4.964878   4.645046
    24  H    9.924225   9.174827   7.440728   6.859585   4.960453
    25  H   11.505130   9.955416   9.117713   7.474883   6.801277
    26  H   12.111749  10.976291   9.643533   8.531855   7.188577
                   21         22         23         24         25
    21  H    0.000000
    22  H    3.111058   0.000000
    23  H    2.483977   3.076605   0.000000
    24  H    4.715621   2.480461   3.114661   0.000000
    25  H    4.993998   4.657995   2.510045   3.079041   0.000000
    26  H    6.116367   4.760631   3.782061   2.443202   1.854741
                   26
    26  H    0.000000
 Stoichiometry    C12H14
 Framework group  C1[X(C12H14)]
 Deg. of freedom    72
 Full point group                 C1      NOp   1
 Largest Abelian subgroup         C1      NOp   1
 Largest concise Abelian subgroup C1      NOp   1
                         Standard orientation:                         
 ---------------------------------------------------------------------
 Center     Atomic      Atomic             Coordinates (Angstroms)
 Number     Number       Type             X           Y           Z
 ---------------------------------------------------------------------
      1          6           0        6.791062   -0.236195    0.000917
      2          6           0        5.605914    0.400602    0.000330
      3          6           0        4.317005   -0.278748    0.000101
      4          6           0        3.123609    0.365468   -0.000352
      5          6           0        1.837309   -0.308669   -0.000492
      6          6           0        0.642856    0.337363   -0.000664
      7          6           0       -0.642806   -0.335925   -0.000665
      8          6           0       -1.837400    0.309842   -0.000492
      9          6           0       -3.123428   -0.364832   -0.000353
     10          6           0       -4.317194    0.278688    0.000102
     11          6           0       -5.605644   -0.401554    0.000330
     12          6           0       -6.791274    0.234339    0.000918
     13          1           0        7.727739    0.312309    0.001084
     14          1           0        6.847965   -1.320490    0.001245
     15          1           0        5.585996    1.488057    0.000018
     16          1           0        4.338548   -1.365877    0.000347
     17          1           0        3.105492    1.452826   -0.000587
     18          1           0        1.855232   -1.395944   -0.000397
     19          1           0        0.625110    1.424680   -0.000747
     20          1           0       -0.624897   -1.423246   -0.000749
     21          1           0       -1.855639    1.397107   -0.000394
     22          1           0       -3.104726   -1.452184   -0.000590
     23          1           0       -4.339419    1.365800    0.000349
     24          1           0       -5.584914   -1.488995    0.000015
     25          1           0       -6.849020    1.318589    0.001248
     26          1           0       -7.727518   -0.314906    0.001084
 ---------------------------------------------------------------------
 Rotational constants (GHZ):          12.8037598           0.1697977           0.1675754
 Standard basis: 6-31G(d,p) (6D, 7F)
 There are   250 symmetry adapted cartesian basis functions of A   symmetry.
 There are   250 symmetry adapted basis functions of A   symmetry.
   250 basis functions,   434 primitive gaussians,   250 cartesian basis functions
    43 alpha electrons       43 beta electrons
       nuclear repulsion energy       531.8199521730 Hartrees.
 NAtoms=   26 NActive=   26 NUniq=   26 SFac= 1.00D+00 NAtFMM=   60 NAOKFM=F Big=F
 Integral buffers will be    131072 words long.
 Raffenetti 2 integral format.
 Two-electron integral symmetry is turned on.
 One-electron integrals computed using PRISM.
 NBasis=   250 RedAO= T EigKep=  1.42D-03  NBF=   250
 NBsUse=   250 1.00D-06 EigRej= -1.00D+00 NBFU=   250
 Initial guess from the checkpoint file:  "checkpoint.chk"
 B after Tr=     0.000000   -0.000000    0.000000
         Rot=    1.000000    0.000002   -0.000000   -0.000627 Ang=   0.07 deg.
 ExpMin= 1.61D-01 ExpMax= 3.05D+03 ExpMxC= 4.57D+02 IAcc=3 IRadAn=         5 AccDes= 0.00D+00
 Harris functional with IExCor=  402 and IRadAn=       5 diagonalized for initial guess.
 HarFok:  IExCor=  402 AccDes= 0.00D+00 IRadAn=         5 IDoV= 1 UseB2=F ITyADJ=14
 ICtDFT=  3500011 ScaDFX=  1.000000  1.000000  1.000000  1.000000
 FoFCou: FMM=F IPFlag=           0 FMFlag=      100000 FMFlg1=           0
         NFxFlg=           0 DoJE=T BraDBF=F KetDBF=T FulRan=T
         wScrn=  0.000000 ICntrl=       500 IOpCl=  0 I1Cent=   200000004 NGrid=           0
         NMat0=    1 NMatS0=      1 NMatT0=    0 NMatD0=    1 NMtDS0=    0 NMtDT0=    0
 Petite list used in FoFCou.
 Requested convergence on RMS density matrix=1.00D-08 within 128 cycles.
 Requested convergence on MAX density matrix=1.00D-06.
 Requested convergence on             energy=1.00D-06.
 No special actions if energy rises.
 Integral accuracy reduced to 1.0D-05 until final iterations.
 Initial convergence to 1.0D-05 achieved.  Increase integral accuracy.
 SCF Done:  E(RB3LYP) =  -465.642176750     A.U. after   12 cycles
            NFock= 12  Conv=0.75D-08     -V/T= 2.0103
 Calling FoFJK, ICntrl=      2127 FMM=F ISym2X=0 I1Cent= 0 IOpClX= 0 NMat=1 NMatS=1 NMatT=0.
 ***** Axes restored to original set *****
 -------------------------------------------------------------------
 Center     Atomic                   Forces (Hartrees/Bohr)
 Number     Number              X              Y              Z
 -------------------------------------------------------------------
      1        6           0.002120631    0.002799850   -0.000191935
      2        6           0.002443331   -0.007085553    0.000434075
      3        6          -0.004714672    0.008011572   -0.000476293
      4        6           0.007233075   -0.009034768    0.000525087
      5        6          -0.008236425    0.008610082   -0.000489361
      6        6           0.008718782   -0.008835395    0.000501938
      7        6          -0.008721903    0.008832668   -0.000499819
      8        6           0.008232134   -0.008616214    0.000491250
      9        6          -0.007233436    0.009036412   -0.000524068
     10        6           0.004710148   -0.008015780    0.000478992
     11        6          -0.002441459    0.007088032   -0.000435820
     12        6          -0.002124893   -0.002796986    0.000196503
     13        1          -0.000039676   -0.000957486    0.000061317
     14        1          -0.000758040   -0.000457151    0.000034350
     15        1           0.000579162    0.001200463   -0.000080928
     16        1           0.000303512   -0.001627963    0.000101132
     17        1          -0.000381031    0.001652182   -0.000103823
     18        1           0.000432635   -0.001609401    0.000098378
     19        1          -0.000450920    0.001632203   -0.000102483
     20        1           0.000454509   -0.001631122    0.000099397
     21        1          -0.000429139    0.001610600   -0.000101053
     22        1           0.000383316   -0.001651527    0.000101661
     23        1          -0.000301203    0.001628885   -0.000102527
     24        1          -0.000578495   -0.001199580    0.000080815
     25        1           0.000758532    0.000456698   -0.000035067
     26        1           0.000041525    0.000959278   -0.000061722
 -------------------------------------------------------------------
 Cartesian Forces:  Max     0.009036412 RMS     0.003925600

 GradGradGradGradGradGradGradGradGradGradGradGradGradGradGradGradGradGrad
 Berny optimization.
 Using GEDIIS/GDIIS optimizer.
 FormGI is forming the generalized inverse of G from B-inverse, IUseBI=4.
 Internal  Forces:  Max     0.009200770 RMS     0.001886561
 Search for a local minimum.
 Step number   2 out of a maximum of  115
 All quantities printed in internal units (Hartrees-Bohrs-Radians)
 Mixed Optimization -- RFO/linear search
 Update second derivatives using D2CorX and points    1    2
 DE= -1.05D-02 DEPred=-9.87D-03 R= 1.06D+00
 TightC=F SS=  1.41D+00  RLast= 2.60D-01 DXNew= 5.0454D-01 7.7931D-01
 Trust test= 1.06D+00 RLast= 2.60D-01 DXMaxT set to 5.05D-01
 ITU=  1  0
 Use linear search instead of GDIIS.
     Eigenvalues ---    0.01060   0.01060   0.01060   0.01066   0.01066
     Eigenvalues ---    0.01996   0.01996   0.01996   0.01996   0.01996
     Eigenvalues ---    0.01996   0.02001   0.02001   0.02030   0.02030
     Eigenvalues ---    0.02888   0.02888   0.02888   0.02889   0.02949
     Eigenvalues ---    0.02949   0.02949   0.02949   0.15757   0.16000
     Eigenvalues ---    0.16000   0.16000   0.16000   0.16000   0.16000
     Eigenvalues ---    0.16000   0.16000   0.16000   0.16000   0.16000
     Eigenvalues ---    0.16000   0.16618   0.20933   0.22000   0.22000
     Eigenvalues ---    0.22000   0.22000   0.22000   0.22000   0.22000
     Eigenvalues ---    0.22000   0.22041   0.31280   0.34823   0.34824
     Eigenvalues ---    0.34870   0.34881   0.35078   0.35079   0.35079
     Eigenvalues ---    0.35080   0.35081   0.35081   0.35081   0.35176
     Eigenvalues ---    0.35191   0.35256   0.35272   0.35334   0.35371
     Eigenvalues ---    0.35421   0.57272   0.57298   0.57308   0.57832
     Eigenvalues ---    0.58342   0.60587
 RFO step:  Lambda=-1.02257582D-03 EMin= 1.05952533D-02
 Quartic linear search produced a step of  0.16182.
 Iteration  1 RMS(Cart)=  0.01437328 RMS(Int)=  0.00003109
 Iteration  2 RMS(Cart)=  0.00008474 RMS(Int)=  0.00000002
 Iteration  3 RMS(Cart)=  0.00000000 RMS(Int)=  0.00000002
 Variable       Old X    -DE/DX   Delta X   Delta X   Delta X     New X
                                 (Linear)    (Quad)   (Total)
    R1        2.54243  -0.00175   0.00318  -0.00562  -0.00245   2.53998
    R2        2.05122  -0.00054   0.00008  -0.00181  -0.00174   2.04948
    R3        2.05184   0.00057  -0.00009   0.00194   0.00185   2.05369
    R4        2.75330  -0.00612  -0.00621  -0.01602  -0.02222   2.73108
    R5        2.05534   0.00127   0.00027   0.00398   0.00425   2.05959
    R6        2.56280  -0.00065   0.00508  -0.00476   0.00032   2.56312
    R7        2.05478   0.00158  -0.00011   0.00530   0.00518   2.05996
    R8        2.74435  -0.00870  -0.00781  -0.02353  -0.03134   2.71302
    R9        2.05509   0.00160  -0.00006   0.00531   0.00525   2.06035
   R10        2.56619   0.00037   0.00562  -0.00305   0.00257   2.56875
   R11        2.05493   0.00155  -0.00008   0.00517   0.00508   2.06002
   R12        2.74254  -0.00920  -0.00810  -0.02498  -0.03308   2.70946
   R13        2.05501   0.00157  -0.00007   0.00523   0.00516   2.06016
   R14        2.56618   0.00037   0.00562  -0.00305   0.00257   2.56875
   R15        2.05502   0.00157  -0.00007   0.00522   0.00515   2.06017
   R16        2.74437  -0.00871  -0.00781  -0.02354  -0.03135   2.71302
   R17        2.05492   0.00155  -0.00008   0.00517   0.00509   2.06001
   R18        2.56279  -0.00065   0.00509  -0.00476   0.00032   2.56311
   R19        2.05510   0.00159  -0.00006   0.00531   0.00525   2.06035
   R20        2.75332  -0.00612  -0.00621  -0.01603  -0.02224   2.73108
   R21        2.05477   0.00158  -0.00011   0.00530   0.00519   2.05996
   R22        2.54242  -0.00175   0.00318  -0.00563  -0.00244   2.53998
   R23        2.05534   0.00127   0.00027   0.00398   0.00425   2.05959
   R24        2.05184   0.00057  -0.00008   0.00194   0.00186   2.05369
   R25        2.05122  -0.00054   0.00007  -0.00181  -0.00174   2.04948
    A1        2.11879   0.00063   0.00403   0.00151   0.00554   2.12433
    A2        2.11628   0.00038   0.00025   0.00256   0.00281   2.11909
    A3        2.04812  -0.00101  -0.00428  -0.00407  -0.00835   2.03977
    A4        2.16347   0.00146   0.00802   0.00191   0.00993   2.17340
    A5        2.08216  -0.00029   0.00095  -0.00150  -0.00055   2.08161
    A6        2.03755  -0.00117  -0.00897  -0.00041  -0.00938   2.02817
    A7        2.16153   0.00102   0.00824  -0.00058   0.00766   2.16919
    A8        2.03605   0.00001  -0.00733   0.00643  -0.00090   2.03516
    A9        2.08560  -0.00103  -0.00091  -0.00585  -0.00676   2.07884
   A10        2.16387   0.00126   0.00861   0.00045   0.00906   2.17292
   A11        2.08245  -0.00123  -0.00131  -0.00677  -0.00807   2.07438
   A12        2.03687  -0.00003  -0.00730   0.00632  -0.00099   2.03588
   A13        2.16306   0.00105   0.00841  -0.00054   0.00786   2.17092
   A14        2.03705   0.00012  -0.00721   0.00716  -0.00005   2.03699
   A15        2.08308  -0.00117  -0.00120  -0.00661  -0.00781   2.07527
   A16        2.16338   0.00112   0.00854  -0.00025   0.00829   2.17167
   A17        2.08291  -0.00123  -0.00126  -0.00692  -0.00818   2.07474
   A18        2.03690   0.00010  -0.00728   0.00717  -0.00011   2.03678
   A19        2.16360   0.00109   0.00849  -0.00036   0.00813   2.17172
   A20        2.03675   0.00012  -0.00726   0.00725  -0.00000   2.03674
   A21        2.08284  -0.00122  -0.00123  -0.00689  -0.00812   2.07472
   A22        2.16287   0.00107   0.00846  -0.00045   0.00801   2.17088
   A23        2.08315  -0.00118  -0.00122  -0.00664  -0.00786   2.07529
   A24        2.03717   0.00010  -0.00724   0.00709  -0.00015   2.03702
   A25        2.16403   0.00124   0.00857   0.00036   0.00893   2.17297
   A26        2.03675  -0.00002  -0.00729   0.00638  -0.00090   2.03585
   A27        2.08240  -0.00122  -0.00128  -0.00675  -0.00803   2.07437
   A28        2.16142   0.00103   0.00827  -0.00053   0.00774   2.16916
   A29        2.08565  -0.00103  -0.00092  -0.00587  -0.00679   2.07885
   A30        2.03612   0.00000  -0.00735   0.00640  -0.00095   2.03517
   A31        2.16354   0.00145   0.00801   0.00187   0.00988   2.17342
   A32        2.03750  -0.00116  -0.00897  -0.00038  -0.00935   2.02815
   A33        2.08215  -0.00029   0.00096  -0.00150  -0.00053   2.08162
   A34        2.11630   0.00038   0.00025   0.00255   0.00280   2.11910
   A35        2.11876   0.00063   0.00404   0.00153   0.00556   2.12432
   A36        2.04813  -0.00101  -0.00429  -0.00408  -0.00836   2.03977
    D1       -3.14157  -0.00000  -0.00000  -0.00001  -0.00001  -3.14159
    D2       -0.00000   0.00000   0.00000   0.00000   0.00000   0.00000
    D3        0.00002  -0.00000   0.00000  -0.00001  -0.00001   0.00001
    D4        3.14159   0.00000   0.00001   0.00000   0.00001  -3.14159
    D5        3.14147   0.00000   0.00001   0.00009   0.00010   3.14157
    D6       -0.00009   0.00000   0.00000   0.00006   0.00006  -0.00003
    D7       -0.00010   0.00000   0.00001   0.00007   0.00008  -0.00002
    D8        3.14152   0.00000  -0.00000   0.00005   0.00005   3.14157
    D9       -3.14152  -0.00000  -0.00001  -0.00005  -0.00006  -3.14157
   D10        0.00002  -0.00000   0.00000  -0.00001  -0.00001   0.00002
   D11        0.00004  -0.00000  -0.00000  -0.00002  -0.00002   0.00002
   D12        3.14158   0.00000   0.00001   0.00002   0.00003  -3.14157
   D13        3.14134   0.00000   0.00003   0.00020   0.00022   3.14157
   D14       -0.00019   0.00000   0.00001   0.00015   0.00016  -0.00003
   D15       -0.00020   0.00000   0.00001   0.00016   0.00018  -0.00003
   D16        3.14145   0.00000  -0.00000   0.00012   0.00011   3.14156
   D17       -3.14148  -0.00000  -0.00002  -0.00007  -0.00009  -3.14157
   D18        0.00005  -0.00000   0.00000  -0.00002  -0.00002   0.00003
   D19        0.00005  -0.00000  -0.00000  -0.00002  -0.00003   0.00003
   D20        3.14158   0.00000   0.00002   0.00003   0.00004  -3.14156
   D21        3.14129   0.00000   0.00003   0.00025   0.00028   3.14157
   D22       -0.00024   0.00000   0.00001   0.00020   0.00021  -0.00003
   D23       -0.00024   0.00000   0.00001   0.00020   0.00021  -0.00003
   D24        3.14142   0.00000  -0.00000   0.00015   0.00014   3.14156
   D25       -3.14148  -0.00000  -0.00002  -0.00007  -0.00009  -3.14157
   D26        0.00005  -0.00000  -0.00000  -0.00002  -0.00003   0.00003
   D27        0.00005  -0.00000   0.00000  -0.00002  -0.00002   0.00003
   D28        3.14158   0.00000   0.00002   0.00003   0.00004  -3.14156
   D29        3.14134   0.00000   0.00003   0.00020   0.00022   3.14157
   D30       -0.00020   0.00000   0.00001   0.00016   0.00018  -0.00003
   D31       -0.00019   0.00000   0.00001   0.00015   0.00016  -0.00003
[...]
 7282,0.00021764,-0.00001387,0.00133888,-0.00194184,0.00007176,-0.00041
 907,-0.03077561,0.00200407,-0.06219861,-0.02885826,0.00200752,0.004975
 53,0.02639896,-0.00170106,0.00160038,0.00140643,-0.00011546,-0.0000649
 8,-0.00010372,0.00000536,-0.00006171,-0.00007788,0.00000529,0.00005283
 ,-0.00002569,0.00000142,-0.00002264,0.00000407,-0.00000021,0.00000099,
 0.00000005,-0.00000057,0.00001048,0.00000501,-0.00000028,-0.00005081,0
 .00003945,-0.00000207,0.00013149,0.00023566,-0.00001345,-0.00029295,0.
 00100748,-0.00006045,-0.00465834,-0.00167744,0.00020641,0.06382963,-0.
 00003902,-0.00002430,0.00000264,0.00002772,-0.00001627,0.00001595,-0.0
 0028351,0.00045271,-0.00003121,0.00215751,0.00084532,-0.00044317,-0.00
 065471,-0.01140741,0.00104081,-0.02998550,-0.31987844,0.01811881,-0.00
 358545,-0.01631317,0.00125764,-0.00177754,0.00083821,-0.00016320,0.000
 39520,0.00054453,-0.00005293,0.00001096,-0.00012789,0.00000694,0.00000
 508,0.00010991,-0.00000561,0.00005591,-0.00006688,0.00000284,-0.000003
 31,-0.00000158,-0.00000477,0.00000357,0.00000384,0.00000078,-0.0000182
 9,0.00000712,0.00000035,0.00023442,-0.00000044,0.00002083,-0.00088495,
 0.00064836,-0.00001935,-0.00168362,0.00032309,0.00056520,0.03277578,0.
 34394658,0.00000234,0.00000230,0.00001247,-0.00000002,0.00001564,0.000
 23554,0.00001814,-0.00003486,-0.00006602,-0.00019012,-0.00041333,-0.00
 581834,0.00007987,0.00126002,0.00472958,0.00207954,0.01811059,-0.04083
 862,0.00021440,0.00103944,0.00289724,0.00008795,-0.00018637,-0.0019077
 7,-0.00002652,-0.00004930,-0.00023561,-0.00000038,0.00000759,-0.000018
 50,-0.00000055,-0.00000539,0.00002295,-0.00000352,0.00000322,-0.000016
 20,-0.00000035,-0.00000480,-0.00007634,-0.00000018,0.00000077,0.000016
 41,0.00000161,-0.00000007,0.00001048,-0.00001337,0.00002083,0.00035119
 ,0.00006044,-0.00003313,0.00024625,0.00020680,0.00056515,0.00894114,-0
 .00237142,-0.02057009,0.02701196,-0.00002264,0.00000407,-0.00000021,0.
 00005283,-0.00002569,0.00000142,-0.00006171,-0.00007788,0.00000529,-0.
 00006498,-0.00010372,0.00000536,0.00160034,0.00140650,-0.00011546,0.00
 497547,0.02639896,-0.00170107,-0.06219872,-0.02885898,0.00200757,-0.00
 041922,-0.03077562,0.00200410,0.00133885,-0.00194190,0.00007177,-0.000
 07282,0.00021765,-0.00001387,-0.00000423,0.00007031,-0.00000274,0.0000
 3324,0.00000844,-0.00000069,0.00000098,-0.00000159,0.00000010,-0.00000
 322,-0.00000096,0.00000012,0.00000813,-0.00000242,0.00000013,-0.000053
 28,-0.00001925,0.00000166,0.00004311,-0.00024379,0.00001613,-0.0002916
 5,-0.00088422,0.00006045,-0.00383135,0.00244339,-0.00009816,0.06383003
 ,0.00005591,-0.00006688,0.00000284,0.00000508,0.00010991,-0.00000561,0
 .00001096,-0.00012789,0.00000694,0.00039520,0.00054455,-0.00005293,-0.
 00177758,0.00083821,-0.00016321,-0.00358543,-0.01631332,0.00125766,-0.
 02998617,-0.31987788,0.01811898,-0.00065477,-0.01140736,0.00104082,0.0
 0215756,0.00084531,-0.00044317,-0.00028350,0.00045272,-0.00003121,0.00
 002772,-0.00001627,0.00001595,-0.00003902,-0.00002430,0.00000264,0.000
 01197,0.00000350,-0.00000028,0.00000099,0.00000471,-0.00000003,-0.0000
 0366,-0.00001222,0.00000114,0.00003739,0.00000890,-0.00000045,-0.00024
 306,0.00009742,0.00000319,0.00100275,0.00064384,-0.00003223,0.00244340
 ,-0.00062941,0.00028621,0.03277646,0.34394606,-0.00000352,0.00000322,-
 0.00001620,-0.00000054,-0.00000539,0.00002295,-0.00000038,0.00000759,-
 0.00001850,-0.00002651,-0.00004930,-0.00023561,0.00008794,-0.00018638,
 -0.00190778,0.00021444,0.00103946,0.00289727,0.00207956,0.01811079,-0.
 04083870,0.00007990,0.00126002,0.00472958,-0.00019012,-0.00041334,-0.0
 0581837,0.00001815,-0.00003486,-0.00006602,-0.00000002,0.00001564,0.00
 023554,0.00000234,0.00000230,0.00001247,-0.00000077,-0.00000018,0.0000
 0058,0.,-0.00000002,0.00000433,0.00000021,0.00000114,0.00000520,-0.000
 00196,-0.00000004,0.00000609,0.00001608,0.00000320,0.00011935,-0.00006
 009,-0.00001850,0.00025513,-0.00009816,0.00028620,0.00411152,-0.002371
 48,-0.02057030,0.02701205,0.00000845,-0.00000005,-0.00000012,-0.000011
 00,0.00000136,-0.00000069,0.00003743,0.00000447,-0.00000033,-0.0000093
 2,0.00007366,-0.00000304,-0.00007038,0.00021489,-0.00001387,0.00135089
 ,-0.00191748,0.00007041,-0.00041950,-0.03077595,0.00200422,-0.06219713
 ,-0.02911823,0.00202587,0.00499755,0.02635341,-0.00169840,0.00164478,0
 .00138273,-0.00011352,-0.00008532,-0.00009965,0.00000518,-0.00006516,-
 0.00009275,0.00000616,0.00000061,0.00000061,0.00000013,0.00000137,0.00
 000162,-0.00000018,-0.00000332,0.00000299,-0.00000014,0.00001269,0.000
 00469,-0.00000025,-0.00005366,0.00003744,-0.00000195,0.00013168,0.0002
 3556,-0.00001345,-0.00029165,0.00100275,-0.00006009,-0.00465835,-0.001
 68362,0.00020679,0.06378636,-0.00001056,-0.00001388,0.00000043,0.00003
 016,-0.00000067,-0.00000619,-0.00008183,-0.00001784,0.00000376,0.00006
 307,-0.00003045,0.00001548,-0.00031651,0.00046618,-0.00003326,0.002162
 98,0.00083380,-0.00043994,-0.00066024,-0.01132161,0.00103620,-0.030275
 13,-0.32018858,0.01815641,-0.00363400,-0.01623336,0.00125229,-0.001728
 08,0.00080591,-0.00015499,0.00035364,0.00055778,-0.00005403,0.00010829
 ,-0.00010122,0.00000360,0.00000079,0.00000041,0.00000148,0.00000084,0.
 00000232,-0.00000076,-0.00000092,0.00000183,0.00000016,0.00000443,0.00
 000357,0.00000098,-0.00001914,0.00000756,0.00000007,0.00023556,0.00000
 010,0.00002074,-0.00088423,0.00064383,-0.00001850,-0.00167741,0.000323
 11,0.00056516,0.03308546,0.34413508,0.00000055,0.00000036,-0.00000834,
 -0.00000253,-0.00000598,-0.00009375,0.00000518,0.00000313,0.00003144,-
 0.00000237,0.00001540,0.00021801,0.00002007,-0.00003713,-0.00008835,-0
 .00019026,-0.00041024,-0.00577887,0.00008032,0.00125533,0.00474256,0.0
 0209979,0.01814798,-0.04060004,0.00021728,0.00103410,0.00288789,0.0000
 8521,-0.00017762,-0.00180631,-0.00002378,-0.00005074,-0.00024437,-0.00
 000668,0.00000506,-0.00003280,0.00000012,0.00000148,0.00002362,-0.0000
 0013,-0.00000076,-0.00000936,0.00000011,0.00000013,0.00000426,-0.00000
 023,0.00000097,0.00001928,0.00000166,-0.00000034,0.00000654,-0.0000134
 5,0.00002074,0.00035043,0.00006045,-0.00003223,0.00025513,0.00020639,0
 .00056520,0.00894114,-0.00239258,-0.02059953,0.02678188,-0.00001039,0.
 00000276,-0.00000013,0.00001355,-0.00001012,0.00000052,-0.00002271,0.0
 0000893,-0.00000050,0.00005587,-0.00002250,0.00000118,-0.00006068,-0.0
 0007952,0.00000540,-0.00006849,-0.00010100,0.00000530,0.00161249,0.001
 41728,-0.00011581,0.00492209,0.02636034,-0.00169865,-0.06230547,-0.029
 46843,0.00204461,-0.00056989,-0.03086715,0.00201153,0.00130305,-0.0020
 6801,0.00007805,-0.00003822,0.00028637,-0.00001734,-0.00000032,-0.0000
 0083,0.00000007,-0.00000045,-0.00000038,0.00000004,0.00000047,0.000000
 08,0.,-0.00000358,-0.00000123,0.00000013,0.00000859,-0.00000263,0.0000
 0014,-0.00005366,-0.00001914,0.00000166,0.00004311,-0.00024305,0.00001
 608,-0.00029295,-0.00088495,0.00006044,-0.00382411,0.00243832,-0.00009
 868,0.06411394,0.00004558,-0.00004259,0.00000215,-0.00000630,0.0000792
 0,-0.00000524,-0.00000188,-0.00009289,0.00000515,0.00003353,0.00009725
 ,-0.00000516,-0.00000732,-0.00011092,0.00000608,0.00040665,0.00054031,
 -0.00005198,-0.00178976,0.00084569,-0.00015982,-0.00362315,-0.01638266
 ,0.00125875,-0.03067569,-0.31926264,0.01806147,-0.00077359,-0.01146603
 ,0.00104957,0.00217970,0.00084134,-0.00046107,-0.00018206,0.00044094,-
 0.00002088,0.00000911,0.00000161,-0.00000006,-0.00000062,0.00000232,-0
 .00000002,-0.00000106,-0.00001036,0.00000076,0.00000326,0.00000279,0.0
 0000004,-0.00000263,-0.00001217,0.00000114,0.00003744,0.00000756,-0.00
 000034,-0.00024380,0.00009742,0.00000320,0.00100748,0.00064837,-0.0000
 3313,0.00244949,-0.00063577,0.00027973,0.03354701,0.34342560,-0.000002
 86,0.00000247,-0.00000382,0.00000028,-0.00000521,-0.00000323,0.0000001
 9,0.00000507,-0.00001284,-0.00000240,-0.00000475,0.00002059,0.00000079
 ,0.00000661,-0.00001696,-0.00002713,-0.00004828,-0.00022367,0.00008907
 ,-0.00018316,-0.00184889,0.00021681,0.00104059,0.00284042,0.00212174,0
 .01805270,-0.04120108,0.00008904,0.00126853,0.00479357,-0.00019331,-0.
 00043017,-0.00609893,0.00001259,-0.00002429,0.00009487,-0.00000057,0.0
 0000002,0.00000179,0.00000006,-0.00000002,0.00000197,0.00000008,0.0000
 0075,0.00000141,-0.00000015,0.00000007,0.00000380,0.00000014,0.0000011
 4,0.00000535,-0.00000195,0.00000007,0.00000654,0.00001613,0.00000319,0
 .00011935,-0.00006045,-0.00001936,0.00024625,-0.00009939,0.00027981,0.
 00400484,-0.00242012,-0.02051974,0.02737037,0.00000291,0.,-0.00000005,
 -0.00000421,0.00000037,0.00000017,0.00000717,0.00000006,-0.00000010,-0
 .00000918,-0.00000260,-0.00000044,0.00003158,0.00000744,-0.00000046,0.
 00000263,0.00006672,-0.00000265,-0.00009447,0.00021703,-0.00001385,0.0
 0141073,-0.00191080,0.00006838,-0.00056482,-0.03081063,0.00200834,-0.0
 6237423,-0.03099513,0.00214933,0.00495649,0.02620871,-0.00168876,0.001
 64669,0.00100955,-0.00008754,0.00000010,0.00000014,-0.00000003,0.00000
 024,0.00000058,-0.00000002,-0.00000040,0.00000099,-0.00000005,0.000001
 45,0.00000150,-0.00000017,-0.00000358,0.00000326,-0.00000015,0.0000126
 9,0.00000443,-0.00000023,-0.00005328,0.00003739,-0.00000196,0.00013150
 ,0.00023442,-0.00001337,-0.00028883,0.00099628,-0.00005963,-0.00467525
 ,-0.00167700,0.00020829,0.06383239,-0.00000349,-0.00000688,0.00000024,
 0.00001364,0.00000286,0.00000113,-0.00003260,-0.00001078,0.00000050,0.
 00004720,-0.00001027,-0.00000564,-0.00009779,-0.00000805,0.00000341,0.
 00007678,-0.00004128,0.00001637,-0.00033263,0.00047788,-0.00003398,0.0
 0214719,0.00080484,-0.00044828,-0.00062295,-0.01099103,0.00102223,-0.0
 3242518,-0.32025271,0.01819622,-0.00408389,-0.01624419,0.00125717,-0.0
 0122284,0.00113923,-0.00016107,0.00000060,0.00000013,-0.00000017,0.000
 00024,0.00000117,0.00000010,-0.00000035,0.00000063,0.00000007,0.000001
 50,0.00000213,-0.00000069,-0.00000123,0.00000279,0.00000007,0.00000469
 ,0.00000357,0.00000097,-0.00001925,0.00000890,-0.00000004,0.00023566,-
 0.00000044,0.00002083,-0.00088857,0.00063894,-0.00001758,-0.00164592,0
 .00033342,0.00058020,0.03532354,0.34384529,0.00000018,0.00000022,-0.00
 000353,-0.00000068,0.00000123,0.00002202,0.00000198,0.00000026,-0.0000
 0675,-0.00000363,-0.00000528,-0.00009282,0.00000627,0.00000264,0.00003
 397,-0.00000330,0.00001644,0.00022266,0.00002127,-0.00003798,-0.000089
 69,-0.00019086,-0.00041875,-0.00593964,0.00007985,0.00124186,0.0048594
 4,0.00224069,0.01818581,-0.04029020,0.00024644,0.00103677,0.00290174,0
 .00005507,-0.00017731,-0.00151039,-0.00000006,-0.00000017,-0.00000251,
 0.,0.00000010,0.00000273,0.00000004,0.00000006,0.00000161,-0.00000017,
 -0.00000069,-0.00000843,0.00000013,0.00000004,0.00000380,-0.00000025,0
 .00000098,0.00001928,0.00000166,-0.00000045,0.00000609,-0.00001345,0.0
 0002084,0.00035119,0.00006078,-0.00003130,0.00026408,0.00020631,0.0005
 8042,0.00918945,-0.00253835,-0.02061914,0.02644340,-0.00000060,-0.0000
 0181,0.00000010,0.00000378,0.00000173,-0.00000014,-0.00000793,-0.00000
 189,0.00000017,0.00001340,-0.00000088,-0.00000007,-0.00001969,-0.00000
 046,0.00000010,0.00005277,-0.00000937,0.00000033,-0.00004981,-0.000090
 70,0.00000600,-0.00008319,-0.00008057,0.00000427,0.00165837,0.00141574
 ,-0.00011428,0.00472337,0.02629177,-0.00169205,-0.06211781,-0.03239662
 ,0.00221808,-0.00146436,-0.03196096,0.00209047,0.00000049,-0.00000019,
 0.00000001,-0.00000021,0.00000002,0.,0.,-0.00000059,0.00000004,-0.0000
 0040,-0.00000035,0.00000004,0.00000047,-0.00000106,0.00000007,-0.00000
 332,-0.00000092,0.00000011,0.00000813,-0.00000366,0.00000021,-0.000050
 81,-0.00001829,0.00000161,0.00003990,-0.00024313,0.00001599,-0.0002864
 0,-0.00089269,0.00006072,-0.00386384,0.00244396,-0.00010163,0.06509669
 ,0.00003670,-0.00003066,0.00000155,-0.00001041,0.00006065,-0.00000380,
 0.00000701,-0.00006300,0.00000390,0.00001053,0.00007122,-0.00000490,-0
 .00001054,-0.00008251,0.00000467,0.00003633,0.00009354,-0.00000525,-0.
 00000420,-0.00010710,0.00000550,0.00042430,0.00056420,-0.00005217,-0.0
 0180168,0.00083811,-0.00014375,-0.00381974,-0.01696910,0.00130437,-0.0
 3378409,-0.32082773,0.01807677,-0.00007258,-0.00942666,0.00093676,0.00
 000714,0.00000083,-0.00000007,-0.00000088,0.00000140,-0.00000001,-0.00
 000059,-0.00000853,0.00000061,0.00000099,0.00000063,0.00000006,0.00000
 008,-0.00001036,0.00000075,0.00000299,0.00000183,0.00000013,-0.0000024
 2,-0.00001222,0.00000114,0.00003945,0.00000712,-0.00000007,-0.00025397
 ,0.00010433,0.00000176,0.00104927,0.00067933,-0.00003696,0.00262680,-0
 .00064165,0.00025356,0.03719759,0.34363874,-0.00000236,0.00000183,-0.0
 0000236,0.00000064,-0.00000389,0.00000018,-0.00000040,0.00000396,-0.00
 000142,-0.00000080,-0.00000482,-0.00000398,0.00000074,0.00000460,-0.00
 001084,-0.00000259,-0.00000492,0.00001584,0.00000047,0.00000613,-0.000
 02183,-0.00002799,-0.00004850,-0.00020081,0.00009127,-0.00016716,-0.00
 160729,0.00023158,0.00108530,0.00294279,0.00230672,0.01806668,-0.04288
 236,0.00005333,0.00116875,0.00515353,-0.00000046,-0.00000001,0.0000006
 1,0.00000007,-0.00000002,0.00000111,0.00000004,0.00000061,0.00000092,-
 0.00000005,0.00000007,0.00000161,0.,0.00000076,0.00000141,-0.00000014,
 0.00000016,0.00000427,0.00000013,0.00000114,0.00000520,-0.00000207,0.0
 0000035,0.00001048,0.00001668,0.00000169,0.00010280,-0.00006334,-0.000
 02283,0.00022220,-0.00011331,0.00025489,0.00361110,-0.00265134,-0.0204
 7985,0.02862223,0.00000547,-0.00000359,0.00000017,-0.00000296,0.000007
 58,-0.00000051,0.00000289,-0.00000691,0.00000042,-0.00000235,0.0000074
 9,-0.00000028,0.00000393,-0.00000627,0.00000031,-0.00000246,0.00000493
 ,-0.00000107,0.00002255,-0.00000257,0.00000027,0.00004009,0.00007615,-
 0.00000277,-0.00013859,0.00020740,-0.00001271,0.00178880,-0.00184438,0
 .00005095,-0.00030983,-0.03091854,0.00201178,-0.06608082,-0.04150636,0
 .00289027,0.00000101,0.,0.,-0.00000012,0.00000029,-0.00000001,-0.00000
 021,-0.00000088,0.00000007,0.00000024,0.00000024,0.,-0.00000045,-0.000
 00062,0.00000006,0.00000137,0.00000084,-0.00000013,-0.00000322,0.00000
 099,0.,0.00001048,0.00000357,-0.00000018,-0.00005022,0.00003404,-0.000
 00178,0.00013441,0.00023397,-0.00001346,-0.00023396,0.00095510,-0.0000
 5722,-0.00467839,-0.00158155,0.00021511,0.06284924,-0.00000661,-0.0000
 0015,-0.00000008,0.00000918,-0.00000587,-0.00000007,-0.00001713,0.0000
 0077,0.00000003,0.00002489,-0.00000933,0.00000199,-0.00004525,-0.00000
 063,-0.00000021,0.00006086,-0.00002273,-0.00000580,-0.00011807,-0.0000
 0164,0.00000332,0.00010388,-0.00005835,0.00002395,-0.00032833,0.000431
 20,-0.00002930,0.00220147,0.00096902,-0.00055086,-0.00077507,-0.009630
 21,0.00092237,-0.04496954,-0.32973726,0.01926643,-0.00000068,0.0000001
 1,0.00000011,0.00000029,0.00000049,0.,0.00000002,0.00000140,-0.0000000
 2,0.00000058,0.00000117,0.00000010,-0.00000038,0.00000232,-0.00000002,
 0.00000162,0.00000232,-0.00000076,-0.00000096,0.00000471,-0.00000002,0
 .00000501,0.00000384,0.00000077,-0.00001438,0.00000791,-0.00000018,0.0
 0021966,-0.00001856,0.00002124,-0.00096728,0.00054717,-0.00000953,-0.0
 0188159,0.00089383,0.00065944,0.05173291,0.34882531,0.00000037,-0.0000
 0011,-0.00000223,-0.00000061,-0.00000006,-0.00000598,0.00000107,-0.000
 00004,-0.00000070,-0.00000139,0.00000212,0.00002453,0.00000280,-0.0000
 0050,-0.00000913,-0.00000465,-0.00000539,-0.00010613,0.00000765,0.0000
 0248,0.00003666,-0.00000454,0.00002415,0.00032680,0.00002151,-0.000033
 20,-0.00006284,-0.00020751,-0.00052142,-0.00736832,0.00008611,0.001141
 67,0.00464628,0.00311150,0.01924123,-0.03452333,0.00000005,0.00000011,
 0.00000176,-0.00000001,0.,0.00000066,0.,-0.00000001,0.00000111,-0.0000
 0002,0.00000010,0.00000273,0.00000004,-0.00000002,0.00000197,-0.000000
 18,-0.00000076,-0.00000936,0.00000012,-0.00000003,0.00000433,-0.000000
 28,0.00000078,0.00001641,0.00000131,-0.00000053,0.00000351,-0.00001254
 ,0.00002114,0.00033768,0.00006559,-0.00002352,0.00028887,0.00023428,0.
 00065726,0.01095839,-0.00360350,-0.02126767,0.02318833,-0.00003035,0.0
 0002198,-0.00000119,0.00001276,-0.00004723,0.00000303,-0.00001464,0.00
 004476,-0.00000278,0.00000528,-0.00005636,0.00000305,-0.00002169,0.000
 05702,-0.00000342,-0.00001268,-0.00008996,0.00000813,-0.00009131,0.000
 15519,-0.00000978,-0.00025969,-0.00037471,0.00001514,-0.00062454,0.001
 35672,-0.00008050,-0.00265721,-0.00422520,0.00037423,-0.01873279,0.020
 51932,-0.00114411,-0.23744516,0.13690956,-0.00724629,-0.00000587,-0.00
 000032,0.00000005,0.00000101,-0.00000068,0.00000005,0.00000049,0.00000
 714,-0.00000046,0.00000010,0.00000060,-0.00000006,-0.00000032,0.000009
 11,-0.00000057,0.00000061,0.00000079,0.00000012,0.00000098,0.00001196,
 -0.00000077,0.00000099,-0.00000331,-0.00000035,0.00001624,0.00001732,-
 0.00000104,0.00000498,-0.00007567,0.00000589,0.00012946,0.00012659,-0.
 00001107,0.00102938,-0.00009652,-0.00005194,0.00664310,-0.00523511,0.0
 0030283,0.25205089,0.00000105,0.00000314,-0.00000030,-0.00000593,-0.00
 000337,0.00000116,0.00000995,0.00000713,-0.00000078,-0.00001933,-0.000
 00630,-0.00000392,0.00002668,0.00001642,-0.00000071,-0.00005719,-0.000
 01895,0.00002177,0.00005261,0.00006594,-0.00000928,-0.00026928,-0.0001
 2780,-0.00008374,-0.00017739,0.00079661,-0.00003533,-0.00208367,-0.000
 87413,0.00081720,-0.01241371,0.01062558,-0.00032111,0.14142762,-0.1656
 5665,0.00755631,-0.00000032,-0.00000024,-0.00000013,0.,0.00000011,0.00
 000011,-0.00000019,0.00000083,-0.00000001,0.00000014,0.00000013,-0.000
 00017,-0.00000083,0.00000161,0.00000002,0.00000061,0.00000041,0.000001
 49,-0.00000159,0.00000350,-0.00000018,0.00000005,-0.00000158,-0.000004
 80,-0.00000646,0.00001074,0.00000095,0.00008485,-0.00000857,0.00000949
 ,-0.00037575,0.00039833,-0.00004061,0.00023490,0.00122377,-0.00052437,
 0.02260615,-0.01220687,0.00076222,-0.14903299,0.16575019,0.00000014,-0
 .00000046,-0.00000148,0.00000039,0.00000146,0.00001407,-0.00000056,-0.
 00000103,-0.00000381,0.00000069,-0.00000365,-0.00006971,-0.00000149,-0
 .00000093,0.00000849,0.00000604,0.00002200,0.00031379,-0.00000323,-0.0
 0001002,-0.00007262,0.00000840,-0.00008297,-0.00146403,0.00001750,-0.0
 0004649,0.00022623,0.00023743,0.00083278,0.01162564,0.00095977,-0.0005
 6070,0.00421421,-0.00753492,0.00758918,-0.03169797,0.00000005,-0.00000
 013,-0.00000223,0.,0.00000011,0.00000176,0.00000001,-0.00000007,0.0000
 0061,-0.00000003,-0.00000017,-0.00000251,0.00000007,-0.00000006,0.0000
 0179,0.00000013,0.00000148,0.00002362,0.00000010,-0.00000028,0.0000005
 8,-0.00000057,-0.00000477,-0.00007634,0.00000048,0.00000077,0.00002475
 ,-0.00000437,0.00001066,0.00014896,0.00002102,-0.00004426,-0.00027747,
 -0.00007311,-0.00052196,-0.00692377,-0.00147577,0.00096477,0.00224801,
 0.00784182,-0.00814527,0.02173943\\0.00001509,0.00003430,-0.00000230,-
 0.00004777,-0.00003678,0.00000270,0.00005381,0.00008096,-0.00000557,-0
 .00005320,-0.00007804,0.00000537,0.00007133,0.00007855,-0.00000554,-0.
 00007069,-0.00007856,0.00000553,0.00007091,0.00007865,-0.00000554,-0.0
 0007142,-0.00007854,0.00000553,0.00005355,0.00007817,-0.00000538,-0.00
 005408,-0.00008101,0.00000557,0.00004804,0.00003689,-0.00000271,-0.000
 01521,-0.00003441,0.00000231,-0.00000567,-0.00001230,0.00000083,0.0000
 0075,-0.00000851,0.00000054,0.00000459,0.00001347,-0.00000089,-0.00000
 199,-0.00002471,0.00000159,0.00000164,0.00002098,-0.00000135,-0.000005
 29,-0.00002134,0.00000139,0.00000450,0.00002118,-0.00000139,-0.0000046
 0,-0.00002123,0.00000139,0.00000524,0.00002130,-0.00000141,-0.00000175
 ,-0.00002101,0.00000136,0.00000197,0.00002469,-0.00000159,-0.00000467,
 -0.00001350,0.00000090,-0.00000072,0.00000851,-0.00000053,0.00000565,0
 .00001228,-0.00000082\\\@


 NOT WHAT WE DID SHALL BE THE TEST
 WHEN ACT AND WILL ARE DONE,
 BUT WHAT OUR LORD INFERS WE WOULD-
 HAD WE DIVINER BEEN.
           EMILY DICKINSON  POEMS NO. CLXXV
 Job cpu time:       0 days  0 hours 34 minutes  7.9 seconds.
 Elapsed time:       0 days  0 hours  8 minutes 32.3 seconds.
 File lengths (MBytes):  RWF=    175 Int=      0 D2E=      0 Chk=     30 Scr=      1
 Normal termination of Gaussian 16 at Thu Nov  9 19:45:29 2023.
