 Entering Gaussian System, Link 0=g16
 Input=./com/7.com
 Output=./log/7.log
 Initial command:
 /home/shohei/gaussian/g16/l1.exe "/home/shohei/gaussian/scratch/Gau-18478.inp" -scrdir="/home/shohei/gaussian/scratch/"
 Entering Link 1 = /home/shohei/gaussian/g16/l1.exe PID=     18480.
  
 Copyright (c) 1988-2017, Gaussian, Inc.  All Rights Reserved.
  
 This is part of the Gaussian(R) 16 program.  It is based on
 the Gaussian(R) 09 system (copyright 2009, Gaussian, Inc.),
 the Gaussian(R) 03 system (copyright 2003, Gaussian, Inc.),
 the Gaussian(R) 98 system (copyright 1998, Gaussian, Inc.),
 the Gaussian(R) 94 system (copyright 1995, Gaussian, Inc.),
 the Gaussian 92(TM) system (copyright 1992, Gaussian, Inc.),
 the Gaussian 90(TM) system (copyright 1990, Gaussian, Inc.),
 the Gaussian 88(TM) system (copyright 1988, Gaussian, Inc.),
 the Gaussian 86(TM) system (copyright 1986, Carnegie Mellon
 University), and the Gaussian 82(TM) system (copyright 1983,
 Carnegie Mellon University). Gaussian is a federally registered
 trademark of Gaussian, Inc.
  
 This software contains proprietary and confidential information,
 including trade secrets, belonging to Gaussian, Inc.
  
 This software is provided under written license and may be
 used, copied, transmitted, or stored only in accord with that
 written license.
  
 The following legend is applicable only to US Government
 contracts under FAR:
  
                    RESTRICTED RIGHTS LEGEND
  
 Use, reproduction and disclosure by the US Government is
 subject to restrictions as set forth in subparagraphs (a)
 and (c) of the Commercial Computer Software - Restricted
 Rights clause in FAR 52.227-19.
  
 Gaussian, Inc.
 340 Quinnipiac St., Bldg. 40, Wallingford CT 06492
  
  
 ---------------------------------------------------------------
 Warning -- This program may not be used in any manner that
 competes with the business of Gaussian, Inc. or will provide
 assistance to any competitor of Gaussian, Inc.  The licensee
 of this program is prohibited from giving any competitor of
 Gaussian, Inc. access to this program.  By using this program,
 the user acknowledges that Gaussian, Inc. is engaged in the
 business of creating and licensing software in the field of
 computational chemistry and represents and warrants to the
 licensee that it is not a competitor of Gaussian, Inc. and that
 it will not use this program in any manner prohibited above.
 ---------------------------------------------------------------
  

 Cite this work as:
 Gaussian 16, Revision B.01,
 M. J. Frisch, G. W. Trucks, H. B. Schlegel, G. E. Scuseria, 
 M. A. Robb, J. R. Cheeseman, G. Scalmani, V. Barone, 
 G. A. Petersson, H. Nakatsuji, X. Li, M. Caricato, A. V. Marenich, 
 J. Bloino, B. G. Janesko, R. Gomperts, B. Mennucci, H. P. Hratchian, 
 J. V. Ortiz, A. F. Izmaylov, J. L. Sonnenberg, D. Williams-Young, 
 F. Ding, F. Lipparini, F. Egidi, J. Goings, B. Peng, A. Petrone, 
 T. Henderson, D. Ranasinghe, V. G. Zakrzewski, J. Gao, N. Rega, 
 G. Zheng, W. Liang, M. Hada, M. Ehara, K. Toyota, R. Fukuda, 
 J. Hasegawa, M. Ishida, T. Nakajima, Y. Honda, O. Kitao, H. Nakai, 
 T. Vreven, K. Throssell, J. A. Montgomery, Jr., J. E. Peralta, 
 F. Ogliaro, M. J. Bearpark, J. J. Heyd, E. N. Brothers, K. N. Kudin, 
 V. N. Staroverov, T. A. Keith, R. Kobayashi, J. Normand, 
 K. Raghavachari, A. P. Rendell, J. C. Burant, S. S. Iyengar, 
 J. Tomasi, M. Cossi, J. M. Millam, M. Klene, C. Adamo, R. Cammi, 
 J. W. Ochterski, R. L. Martin, K. Morokuma, O. Farkas, 
 J. B. Foresman, and D. J. Fox, Gaussian, Inc., Wallingford CT, 2016.
 
 ******************************************
 Gaussian 16:  EM64L-G16RevB.01 20-Dec-2017
                27-Oct-2023 
 ******************************************
 %chk=./chk/7.chk
 ---------------------------
 # B3LYP/6-31G(d,p) OPT FREQ
 ---------------------------
 1/18=20,19=15,26=3,38=1/1,3;
 2/9=110,12=2,17=6,18=5,40=1/2;
 3/5=1,6=6,7=101,11=2,25=1,30=1,71=1,74=-5/1,2,3;
 4//1;
 5/5=2,38=5/2;
 6/7=2,8=2,9=2,10=2,28=1/1;
 7//1,2,3,16;
 1/18=20,19=15,26=3/3(2);
 2/9=110/2;
 99//99;
 2/9=110/2;
 3/5=1,6=6,7=101,11=2,25=1,30=1,71=1,74=-5/1,2,3;
 4/5=5,16=3,69=1/1;
 5/5=2,38=5/2;
 7//1,2,3,16;
 1/18=20,19=15,26=3/3(-5);
 2/9=110/2;
 6/7=2,8=2,9=2,10=2,19=2,28=1/1;
 99/9=1/99;
 -----
 7poly
 -----
 Symbolic Z-matrix:
 Charge =  0 Multiplicity = 1
 C                     13.11331  -3.80861  -2.38434 
 C                     13.6955  -4.61169  -1.49085 
 C                     15.09312  -5.05851  -1.66236 
 C                     15.67295  -5.86578  -0.76431 
 C                     17.07052  -6.31411  -0.93649 
 C                     17.6495  -7.12447  -0.04062 
 C                     19.04626  -7.57457  -0.21467 
 C                     19.62415  -8.38888   0.6783 
 C                     21.02004  -8.84092   0.50217 
 C                     21.59695  -9.65887   1.39244 
 C                     22.99214  -10.11246   1.21463 
 C                     23.56841  -10.93279   2.10305 
 C                     24.96278  -11.38673   1.92388 
 C                     25.54078  -12.20519   2.80604 
 H                     13.65056  -3.46126  -3.26198 
 H                     13.12442  -4.93793  -0.62572 
 H                     15.6548  -4.72514  -2.53213 
 H                     15.11043  -6.19923   0.10488 
 H                     17.63298  -5.97986  -1.80539 
 H                     17.08687  -7.45959   0.82784 
 H                     19.60897  -7.23856  -1.08274 
 H                     19.06128  -8.72583   1.54589 
 H                     21.58296  -8.50318  -0.36509 
 H                     21.0339  -9.99737   2.25931 
 H                     23.55532  -9.77354   0.34799 
 H                     23.00586  -11.27263   2.96975 
 H                     25.5347  -11.05366   1.0619 
 H                     25.00247  -12.56018   3.67996 
 H                     26.56621  -12.52713   2.65582 
 H                     12.0854  -3.49201  -2.23999 
 

 GradGradGradGradGradGradGradGradGradGradGradGradGradGradGradGradGradGrad
 Berny optimization.
 Initialization pass.
                           ----------------------------
                           !    Initial Parameters    !
                           ! (Angstroms and Degrees)  !
 --------------------------                            --------------------------
 ! Name  Definition              Value          Derivative Info.                !
 --------------------------------------------------------------------------------
 ! R1    R(1,2)                  1.335          estimate D2E/DX2                !
 ! R2    R(1,15)                 1.0861         estimate D2E/DX2                !
 ! R3    R(1,30)                 1.0852         estimate D2E/DX2                !
 ! R4    R(2,3)                  1.4773         estimate D2E/DX2                !
 ! R5    R(2,16)                 1.0867         estimate D2E/DX2                !
 ! R6    R(3,4)                  1.3395         estimate D2E/DX2                !
 ! R7    R(3,17)                 1.0877         estimate D2E/DX2                !
 ! R8    R(4,5)                  1.4778         estimate D2E/DX2                !
 ! R9    R(4,18)                 1.0877         estimate D2E/DX2                !
 ! R10   R(5,6)                  1.3396         estimate D2E/DX2                !
 ! R11   R(5,19)                 1.0877         estimate D2E/DX2                !
 ! R12   R(6,7)                  1.4778         estimate D2E/DX2                !
 ! R13   R(6,20)                 1.0877         estimate D2E/DX2                !
 ! R14   R(7,8)                  1.3396         estimate D2E/DX2                !
 ! R15   R(7,21)                 1.0877         estimate D2E/DX2                !
 ! R16   R(8,9)                  1.4778         estimate D2E/DX2                !
 ! R17   R(8,22)                 1.0877         estimate D2E/DX2                !
 ! R18   R(9,10)                 1.3396         estimate D2E/DX2                !
 ! R19   R(9,23)                 1.0877         estimate D2E/DX2                !
 ! R20   R(10,11)                1.4778         estimate D2E/DX2                !
 ! R21   R(10,24)                1.0877         estimate D2E/DX2                !
 ! R22   R(11,12)                1.3395         estimate D2E/DX2                !
 ! R23   R(11,25)                1.0877         estimate D2E/DX2                !
 ! R24   R(12,13)                1.4773         estimate D2E/DX2                !
 ! R25   R(12,26)                1.0877         estimate D2E/DX2                !
 ! R26   R(13,14)                1.335          estimate D2E/DX2                !
 ! R27   R(13,27)                1.0868         estimate D2E/DX2                !
 ! R28   R(14,28)                1.0861         estimate D2E/DX2                !
 ! R29   R(14,29)                1.0852         estimate D2E/DX2                !
 ! A1    A(2,1,15)             121.1652         estimate D2E/DX2                !
 ! A2    A(2,1,30)             119.9703         estimate D2E/DX2                !
 ! A3    A(15,1,30)            118.8645         estimate D2E/DX2                !
 ! A4    A(1,2,3)              121.1193         estimate D2E/DX2                !
 ! A5    A(1,2,16)             118.9611         estimate D2E/DX2                !
 ! A6    A(3,2,16)             119.9196         estimate D2E/DX2                !
 ! A7    A(2,3,4)              120.9274         estimate D2E/DX2                !
 ! A8    A(2,3,17)             119.2536         estimate D2E/DX2                !
 ! A9    A(4,3,17)             119.8191         estimate D2E/DX2                !
 ! A10   A(3,4,5)              120.9361         estimate D2E/DX2                !
 ! A11   A(3,4,18)             119.7769         estimate D2E/DX2                !
 ! A12   A(5,4,18)             119.287          estimate D2E/DX2                !
 ! A13   A(4,5,6)              120.9544         estimate D2E/DX2                !
 ! A14   A(4,5,19)             119.2677         estimate D2E/DX2                !
 ! A15   A(6,5,19)             119.7779         estimate D2E/DX2                !
 ! A16   A(5,6,7)              120.9305         estimate D2E/DX2                !
 ! A17   A(5,6,20)             119.7877         estimate D2E/DX2                !
 ! A18   A(7,6,20)             119.2818         estimate D2E/DX2                !
 ! A19   A(6,7,8)              120.9564         estimate D2E/DX2                !
 ! A20   A(6,7,21)             119.2671         estimate D2E/DX2                !
 ! A21   A(8,7,21)             119.7764         estimate D2E/DX2                !
 ! A22   A(7,8,9)              120.9297         estimate D2E/DX2                !
 ! A23   A(7,8,22)             119.7876         estimate D2E/DX2                !
 ! A24   A(9,8,22)             119.2826         estimate D2E/DX2                !
 ! A25   A(8,9,10)             120.9551         estimate D2E/DX2                !
 ! A26   A(8,9,23)             119.2682         estimate D2E/DX2                !
 ! A27   A(10,9,23)            119.7766         estimate D2E/DX2                !
 ! A28   A(9,10,11)            120.9333         estimate D2E/DX2                !
 ! A29   A(9,10,24)            119.7861         estimate D2E/DX2                !
 ! A30   A(11,10,24)           119.2805         estimate D2E/DX2                !
 ! A31   A(10,11,12)           120.952          estimate D2E/DX2                !
 ! A32   A(10,11,25)           119.2788         estimate D2E/DX2                !
 ! A33   A(12,11,25)           119.7692         estimate D2E/DX2                !
 ! A34   A(11,12,13)           120.9166         estimate D2E/DX2                !
 ! A35   A(11,12,26)           119.8227         estimate D2E/DX2                !
 ! A36   A(13,12,26)           119.2606         estimate D2E/DX2                !
 ! A37   A(12,13,14)           121.1246         estimate D2E/DX2                !
 ! A38   A(12,13,27)           119.9173         estimate D2E/DX2                !
 ! A39   A(14,13,27)           118.9581         estimate D2E/DX2                !
 ! A40   A(13,14,28)           121.1658         estimate D2E/DX2                !
 ! A41   A(13,14,29)           119.9679         estimate D2E/DX2                !
 ! A42   A(28,14,29)           118.8663         estimate D2E/DX2                !
 ! D1    D(15,1,2,3)            -0.0059         estimate D2E/DX2                !
 ! D2    D(15,1,2,16)         -179.9827         estimate D2E/DX2                !
 ! D3    D(30,1,2,3)           179.9818         estimate D2E/DX2                !
 ! D4    D(30,1,2,16)            0.005          estimate D2E/DX2                !
 ! D5    D(1,2,3,4)           -179.9117         estimate D2E/DX2                !
 ! D6    D(1,2,3,17)             0.0436         estimate D2E/DX2                !
 ! D7    D(16,2,3,4)             0.0649         estimate D2E/DX2                !
 ! D8    D(16,2,3,17)         -179.9798         estimate D2E/DX2                !
 ! D9    D(2,3,4,5)            179.9292         estimate D2E/DX2                !
 ! D10   D(2,3,4,18)            -0.0069         estimate D2E/DX2                !
 ! D11   D(17,3,4,5)            -0.0258         estimate D2E/DX2                !
 ! D12   D(17,3,4,18)         -179.962          estimate D2E/DX2                !
 ! D13   D(3,4,5,6)           -179.8077         estimate D2E/DX2                !
 ! D14   D(3,4,5,19)             0.11           estimate D2E/DX2                !
 ! D15   D(18,4,5,6)             0.1287         estimate D2E/DX2                !
 ! D16   D(18,4,5,19)         -179.9536         estimate D2E/DX2                !
 ! D17   D(4,5,6,7)            179.8816         estimate D2E/DX2                !
 ! D18   D(4,5,6,20)            -0.0246         estimate D2E/DX2                !
 ! D19   D(19,5,6,7)            -0.0358         estimate D2E/DX2                !
 ! D20   D(19,5,6,20)         -179.9419         estimate D2E/DX2                !
 ! D21   D(5,6,7,8)           -179.7516         estimate D2E/DX2                !
 ! D22   D(5,6,7,21)             0.1506         estimate D2E/DX2                !
 ! D23   D(20,6,7,8)             0.155          estimate D2E/DX2                !
 ! D24   D(20,6,7,21)         -179.9428         estimate D2E/DX2                !
 ! D25   D(6,7,8,9)            179.8688         estimate D2E/DX2                !
 ! D26   D(6,7,8,22)            -0.0353         estimate D2E/DX2                !
 ! D27   D(21,7,8,9)            -0.0329         estimate D2E/DX2                !
 ! D28   D(21,7,8,22)         -179.937          estimate D2E/DX2                !
 ! D29   D(7,8,9,10)          -179.7707         estimate D2E/DX2                !
 ! D30   D(7,8,9,23)             0.145          estimate D2E/DX2                !
 ! D31   D(22,8,9,10)            0.1339         estimate D2E/DX2                !
 ! D32   D(22,8,9,23)         -179.9505         estimate D2E/DX2                !
 ! D33   D(8,9,10,11)          179.8951         estimate D2E/DX2                !
 ! D34   D(8,9,10,24)           -0.0338         estimate D2E/DX2                !
 ! D35   D(23,9,10,11)          -0.0202         estimate D2E/DX2                !
 ! D36   D(23,9,10,24)        -179.949          estimate D2E/DX2                !
 ! D37   D(9,10,11,12)        -179.8478         estimate D2E/DX2                !
 ! D38   D(9,10,11,25)           0.1009         estimate D2E/DX2                !
 ! D39   D(24,10,11,12)          0.0814         estimate D2E/DX2                !
 ! D40   D(24,10,11,25)       -179.9699         estimate D2E/DX2                !
 ! D41   D(10,11,12,13)        179.9437         estimate D2E/DX2                !
 ! D42   D(10,11,12,26)         -0.0218         estimate D2E/DX2                !
 ! D43   D(25,11,12,13)         -0.0048         estimate D2E/DX2                !
 ! D44   D(25,11,12,26)       -179.9703         estimate D2E/DX2                !
 ! D45   D(11,12,13,14)       -179.9392         estimate D2E/DX2                !
 ! D46   D(11,12,13,27)          0.0433         estimate D2E/DX2                !
 ! D47   D(26,12,13,14)          0.0265         estimate D2E/DX2                !
 ! D48   D(26,12,13,27)       -179.991          estimate D2E/DX2                !
 ! D49   D(12,13,14,28)         -0.0049         estimate D2E/DX2                !
 ! D50   D(12,13,14,29)        179.9866         estimate D2E/DX2                !
 ! D51   D(27,13,14,28)       -179.9876         estimate D2E/DX2                !
 ! D52   D(27,13,14,29)          0.004          estimate D2E/DX2                !
 --------------------------------------------------------------------------------
 Trust Radius=3.00D-01 FncErr=1.00D-07 GrdErr=1.00D-06 EigMax=2.50D+02 EigMin=1.00D-04
 Number of steps in this run=    133 maximum allowed number of steps=    180.
 GradGradGradGradGradGradGradGradGradGradGradGradGradGradGradGradGradGrad

                          Input orientation:                          
 ---------------------------------------------------------------------
 Center     Atomic      Atomic             Coordinates (Angstroms)
 Number     Number       Type             X           Y           Z
 ---------------------------------------------------------------------
      1          6           0       13.113313   -3.808612   -2.384342
      2          6           0       13.695505   -4.611695   -1.490849
      3          6           0       15.093117   -5.058509   -1.662359
      4          6           0       15.672947   -5.865779   -0.764313
      5          6           0       17.070517   -6.314110   -0.936491
      6          6           0       17.649496   -7.124474   -0.040624
      7          6           0       19.046263   -7.574568   -0.214673
      8          6           0       19.624153   -8.388881    0.678296
      9          6           0       21.020039   -8.840919    0.502166
     10          6           0       21.596947   -9.658872    1.392438
     11          6           0       22.992135  -10.112458    1.214627
     12          6           0       23.568406  -10.932794    2.103049
     13          6           0       24.962781  -11.386728    1.923878
     14          6           0       25.540785  -12.205194    2.806041
     15          1           0       13.650564   -3.461264   -3.261983
     16          1           0       13.124421   -4.937933   -0.625722
     17          1           0       15.654802   -4.725137   -2.532129
     18          1           0       15.110432   -6.199232    0.104876
     19          1           0       17.632983   -5.979856   -1.805394
     20          1           0       17.086874   -7.459587    0.827842
     21          1           0       19.608970   -7.238556   -1.082741
     22          1           0       19.061284   -8.725827    1.545893
     23          1           0       21.582958   -8.503179   -0.365093
     24          1           0       21.033901   -9.997371    2.259315
     25          1           0       23.555324   -9.773542    0.347985
     26          1           0       23.005864  -11.272632    2.969750
     27          1           0       25.534703  -11.053661    1.061904
     28          1           0       25.002472  -12.560180    3.679957
     29          1           0       26.566207  -12.527130    2.655821
     30          1           0       12.085396   -3.492006   -2.239991
 ---------------------------------------------------------------------
                    Distance matrix (angstroms):
                    1          2          3          4          5
     1  C    0.000000
     2  C    1.334998   0.000000
     3  C    2.450127   1.477287   0.000000
     4  C    3.661715   2.451706   1.339543   0.000000
     5  C    4.902373   3.820503   2.452250   1.477785   0.000000
     6  C    6.088096   4.904208   3.665148   2.452505   1.339583
     7  C    7.354576   6.248029   4.904459   3.821168   2.452213
     8  C    8.529340   7.356710   6.091004   4.905016   3.665142
     9  C    9.806751   8.689491   7.356644   6.248746   4.904409
    10  C   10.975502   9.809186   8.531995   7.357506   6.090969
    11  C   12.258963  11.135768   9.808870   8.690281   7.356651
    12  C   13.423845  12.261589  10.977980   9.809927   8.531916
    13  C   14.710489  13.583554  12.260412  11.135899   9.808210
    14  C   15.870876  14.711735  13.423691  12.260090  10.975283
    15  H    1.086068   2.112446   2.681594   4.013737   5.024214
    16  H    2.090032   1.086744   2.228210   2.715712   4.190718
    17  H    2.705739   2.221707   1.087716   2.103941   2.659915
    18  H    3.987450   2.658690   2.103490   1.087706   2.222516
    19  H    5.047464   4.180256   2.705598   2.222297   1.087698
    20  H    6.279883   4.998820   3.992662   2.659769   2.103629
    21  H    7.460043   6.483519   5.047919   4.180692   2.705500
    22  H    8.660491   7.412116   6.283984   4.999775   3.992713
    23  H    9.891978   8.866956   7.461012   6.484095   5.047836
    24  H   11.072489   9.844862   8.663995   7.412975   6.283948
    25  H   12.332136  11.280160   9.893532   8.867901   7.461251
    26  H   13.499647  12.286082  11.076251   9.846266   8.664525
    27  H   14.787098  13.717948  12.344642  11.291741   9.904512
    28  H   15.959880  14.756800  13.528146  12.312862  11.101391
    29  H   16.804647  15.668566  14.354748  13.218700  11.902708
    30  H    1.085214   2.099373   3.440054   4.547851   5.874931
                    6          7          8          9         10
     6  C    0.000000
     7  C    1.477781   0.000000
     8  C    2.452517   1.339572   0.000000
     9  C    3.821174   2.452202   1.477789   0.000000
    10  C    4.905019   3.665121   2.452508   1.339572   0.000000
    11  C    6.248799   4.904456   3.821214   2.452259   1.477805
    12  C    7.357454   6.090918   4.904951   3.665097   2.452447
    13  C    8.689661   7.356027   6.248160   4.903837   3.820569
    14  C    9.807632   8.529139   7.355140   6.087965   4.902641
    15  H    6.307751   7.437671   8.688554   9.870090  11.100405
    16  H    5.059605   6.495308   7.473688   8.879539   9.906762
    17  H    3.992896   4.999187   6.283756   7.411638   8.663317
    18  H    2.706305   4.181438   5.049460   6.485353   7.463364
    19  H    2.103530   2.659110   3.992102   4.998267   6.282858
    20  H    1.087694   2.222445   2.706240   4.181379   5.049394
    21  H    2.222287   1.087697   2.103504   2.659063   3.992054
    22  H    2.659795   2.103619   1.087694   2.222461   2.706235
    23  H    4.180698   2.705507   2.222306   1.087697   2.103506
    24  H    4.999745   3.992655   2.659747   2.103603   1.087694
    25  H    6.484395   5.048138   4.180968   2.705776   2.222447
    26  H    7.413517   6.284478   5.000275   3.993206   2.660297
    27  H    8.878658   7.472187   6.494830   5.058826   4.190538
    28  H    9.871974   8.689125   7.438819   6.308013   5.024732
    29  H   10.768809   9.450776   8.320327   6.999025   5.875082
    30  H    6.999375   8.320030   9.451383  10.768387  11.903545
                   11         12         13         14         15
    11  C    0.000000
    12  C    1.339527   0.000000
    13  C    2.451580   1.477308   0.000000
    14  C    3.661661   2.450200   1.334986   0.000000
    15  H   12.310295  13.526674  14.753724  15.957900   0.000000
    16  H   11.293112  12.347524  13.719846  14.790408   3.067125
    17  H    9.843671  11.074520  12.282966  13.497406   2.479321
    18  H    8.869392   9.896293  11.282183  12.335320   4.578583
    19  H    7.410765   8.662376   9.842137  11.070388   4.931999
    20  H    6.485325   7.463214   8.868688   9.894577   6.672442
    21  H    4.998301   6.282816   7.410153   8.658900   7.383741
    22  H    4.181396   5.049284   6.484669   7.461762   8.950262
    23  H    2.659149   3.992086   4.997743   6.278964   9.835434
    24  H    2.222453   2.706132   4.180780   5.048306  11.301287
    25  H    1.087710   2.103398   2.658334   3.987107  12.287432
    26  H    2.103960   1.087711   2.221799   2.705974  13.688448
    27  H    2.715481   2.228209   1.086751   2.089996  14.750364
    28  H    4.013807   2.681711   2.112435   1.086059  16.119759
    29  H    4.547711   3.440099   2.099342   1.085219  16.853017
    30  H   13.218234  14.355725  15.668167  16.805641   1.869536
                   16         17         18         19         20
    16  H    0.000000
    17  H    3.175295   0.000000
    18  H    2.463511   3.069705   0.000000
    19  H    4.775391   2.452685   3.171832   0.000000
    20  H    4.916566   4.562615   2.453059   3.069490   0.000000
    21  H    6.895731   4.904431   4.767333   2.451750   3.171774
    22  H    7.369558   6.651308   4.906062   4.561965   2.453009
    23  H    9.182906   7.356133   6.886410   4.903462   4.767279
    24  H    9.822486   8.926875   7.359005   6.650454   4.905964
    25  H   11.538412   9.808144   9.173385   7.355489   6.886617
    26  H   12.275942  11.277343   9.812478   8.926552   7.359451
    27  H   13.937909  12.271093  11.538925   9.818456   9.183570
    28  H   14.755528  13.687836  12.292083  11.300403   9.839070
    29  H   15.781193  14.382096  13.333582  11.940341  10.903177
    30  H    2.403361   3.787693   4.688104   6.095407   7.082943
                   21         22         23         24         25
    21  H    0.000000
    22  H    3.069471   0.000000
    23  H    2.451718   3.171795   0.000000
    24  H    4.561889   2.452960   3.069461   0.000000
    25  H    4.903758   4.767503   2.452045   3.171885   0.000000
    26  H    6.650965   4.906455   4.562423   2.453497   3.069662
    27  H    7.366739   6.896246   4.915034   4.775642   2.462991
    28  H    8.949460   7.386082   6.671938   4.933130   4.578387
    29  H    9.505210   8.485619   7.081728   6.096172   4.687619
    30  H    8.484104   9.507303  10.900954  11.943168  13.330962
                   26         27         28         29         30
    26  H    0.000000
    27  H    3.175351   0.000000
    28  H    2.479641   3.067095   0.000000
    29  H    3.787923   2.403265   1.869550   0.000000
    30  H   14.385276  15.778624  16.856109  17.756586   0.000000
 Stoichiometry    C14H16
 Framework group  C1[X(C14H16)]
 Deg. of freedom    84
 Full point group                 C1      NOp   1
 Largest Abelian subgroup         C1      NOp   1
 Largest concise Abelian subgroup C1      NOp   1
                         Standard orientation:                         
 ---------------------------------------------------------------------
 Center     Atomic      Atomic             Coordinates (Angstroms)
 Number     Number       Type             X           Y           Z
 ---------------------------------------------------------------------
      1          6           0       -7.930749   -0.267618    0.020023
      2          6           0       -6.779724    0.408591    0.009906
      3          6           0       -5.480826   -0.295122    0.004289
      4          6           0       -4.328151    0.387261   -0.004092
      5          6           0       -3.028700   -0.316486   -0.008146
      6          6           0       -1.875756    0.365557   -0.012672
      7          6           0       -0.576595   -0.338726   -0.014104
      8          6           0        0.576655    0.342792   -0.013650
      9          6           0        1.875495   -0.362100   -0.012180
     10          6           0        3.029038    0.318904   -0.007128
     11          6           0        4.327616   -0.386494   -0.003338
     12          6           0        5.481330    0.294101    0.004765
     13          6           0        6.779029   -0.411866    0.009795
     14          6           0        7.931281    0.262240    0.019084
     15          1           0       -7.944602   -1.353589    0.024312
     16          1           0       -6.807660    1.494969    0.006175
     17          1           0       -5.465508   -1.382724    0.007769
     18          1           0       -4.344266    1.474843   -0.006941
     19          1           0       -3.012955   -1.404068   -0.006065
     20          1           0       -1.891313    1.453139   -0.013796
     21          1           0       -0.561318   -1.426316   -0.013926
     22          1           0        0.561591    1.430382   -0.012789
     23          1           0        1.890288   -1.449695   -0.013861
     24          1           0        3.014421    1.406497   -0.004606
     25          1           0        4.342201   -1.474102   -0.006358
     26          1           0        5.467759    1.381722    0.008279
     27          1           0        6.805041   -1.498300    0.006207
     28          1           0        7.947128    1.348176    0.023124
     29          1           0        8.873897   -0.275497    0.022864
     30          1           0       -8.874358    0.268359    0.024305
 ---------------------------------------------------------------------
 Rotational constants (GHZ):          10.3725083           0.1098745           0.1087240
 Standard basis: 6-31G(d,p) (6D, 7F)
 There are   290 symmetry adapted cartesian basis functions of A   symmetry.
 There are   290 symmetry adapted basis functions of A   symmetry.
   290 basis functions,   504 primitive gaussians,   290 cartesian basis functions
    50 alpha electrons       50 beta electrons
       nuclear repulsion energy       664.0825588200 Hartrees.
 NAtoms=   30 NActive=   30 NUniq=   30 SFac= 1.00D+00 NAtFMM=   60 NAOKFM=F Big=F
 Integral buffers will be    131072 words long.
 Raffenetti 2 integral format.
 Two-electron integral symmetry is turned on.
 One-electron integrals computed using PRISM.
 NBasis=   290 RedAO= T EigKep=  1.30D-03  NBF=   290
 NBsUse=   290 1.00D-06 EigRej= -1.00D+00 NBFU=   290
 ExpMin= 1.61D-01 ExpMax= 3.05D+03 ExpMxC= 4.57D+02 IAcc=3 IRadAn=         5 AccDes= 0.00D+00
 Harris functional with IExCor=  402 and IRadAn=       5 diagonalized for initial guess.
 HarFok:  IExCor=  402 AccDes= 0.00D+00 IRadAn=         5 IDoV= 1 UseB2=F ITyADJ=14
 ICtDFT=  3500011 ScaDFX=  1.000000  1.000000  1.000000  1.000000
 FoFCou: FMM=F IPFlag=           0 FMFlag=      100000 FMFlg1=           0
         NFxFlg=           0 DoJE=T BraDBF=F KetDBF=T FulRan=T
         wScrn=  0.000000 ICntrl=       500 IOpCl=  0 I1Cent=   200000004 NGrid=           0
         NMat0=    1 NMatS0=      1 NMatT0=    0 NMatD0=    1 NMtDS0=    0 NMtDT0=    0
 Petite list used in FoFCou.
 Requested convergence on RMS density matrix=1.00D-08 within 128 cycles.
 Requested convergence on MAX density matrix=1.00D-06.
 Requested convergence on             energy=1.00D-06.
 No special actions if energy rises.
 Integral accuracy reduced to 1.0D-05 until final iterations.
 Initial convergence to 1.0D-05 achieved.  Increase integral accuracy.
 SCF Done:  E(RB3LYP) =  -543.039870905     A.U. after   13 cycles
            NFock= 13  Conv=0.64D-08     -V/T= 2.0100

 **********************************************************************

            Population analysis using the SCF Density.

 **********************************************************************

 Orbital symmetries:
       Occupied  (A) (A) (A) (A) (A) (A) (A) (A) (A) (A) (A) (A)
                 (A) (A) (A) (A) (A) (A) (A) (A) (A) (A) (A) (A)
                 (A) (A) (A) (A) (A) (A) (A) (A) (A) (A) (A) (A)
                 (A) (A) (A) (A) (A) (A) (A) (A) (A) (A) (A) (A)
                 (A) (A)
       Virtual   (A) (A) (A) (A) (A) (A) (A) (A) (A) (A) (A) (A)
                 (A) (A) (A) (A) (A) (A) (A) (A) (A) (A) (A) (A)
                 (A) (A) (A) (A) (A) (A) (A) (A) (A) (A) (A) (A)
                 (A) (A) (A) (A) (A) (A) (A) (A) (A) (A) (A) (A)
                 (A) (A) (A) (A) (A) (A) (A) (A) (A) (A) (A) (A)
                 (A) (A) (A) (A) (A) (A) (A) (A) (A) (A) (A) (A)
                 (A) (A) (A) (A) (A) (A) (A) (A) (A) (A) (A) (A)
                 (A) (A) (A) (A) (A) (A) (A) (A) (A) (A) (A) (A)
                 (A) (A) (A) (A) (A) (A) (A) (A) (A) (A) (A) (A)
                 (A) (A) (A) (A) (A) (A) (A) (A) (A) (A) (A) (A)
                 (A) (A) (A) (A) (A) (A) (A) (A) (A) (A) (A) (A)
                 (A) (A) (A) (A) (A) (A) (A) (A) (A) (A) (A) (A)
                 (A) (A) (A) (A) (A) (A) (A) (A) (A) (A) (A) (A)
                 (A) (A) (A) (A) (A) (A) (A) (A) (A) (A) (A) (A)
                 (A) (A) (A) (A) (A) (A) (A) (A) (A) (A) (A) (A)
                 (A) (A) (A) (A) (A) (A) (A) (A) (A) (A) (A) (A)
                 (A) (A) (A) (A) (A) (A) (A) (A) (A) (A) (A) (A)
                 (A) (A) (A) (A) (A) (A) (A) (A) (A) (A) (A) (A)
                 (A) (A) (A) (A) (A) (A) (A) (A) (A) (A) (A) (A)
                 (A) (A) (A) (A) (A) (A) (A) (A) (A) (A) (A) (A)
 The electronic state is 1-A.
 Alpha  occ. eigenvalues --  -10.19155 -10.19153 -10.19137 -10.19128 -10.19118
 Alpha  occ. eigenvalues --  -10.19107 -10.19104 -10.19045 -10.19031 -10.19026
 Alpha  occ. eigenvalues --  -10.18960 -10.18958 -10.17937 -10.17935  -0.82726
 Alpha  occ. eigenvalues --   -0.81777  -0.80253  -0.78192  -0.75651  -0.72770
 Alpha  occ. eigenvalues --   -0.70018  -0.62741  -0.59419  -0.56883  -0.56086
 Alpha  occ. eigenvalues --   -0.55927  -0.54922  -0.54241  -0.48347  -0.47716
 Alpha  occ. eigenvalues --   -0.46573  -0.45085  -0.43887  -0.41602  -0.40392
 Alpha  occ. eigenvalues --   -0.39515  -0.38151  -0.37842  -0.37429  -0.36746
 Alpha  occ. eigenvalues --   -0.35866  -0.35015  -0.34634  -0.33808  -0.33262
 Alpha  occ. eigenvalues --   -0.31853  -0.29186  -0.25868  -0.22060  -0.18328
 Alpha virt. eigenvalues --   -0.06297  -0.02234   0.02142   0.05877   0.08436
 Alpha virt. eigenvalues --    0.08539   0.09661   0.09847   0.09925   0.11791
 Alpha virt. eigenvalues --    0.12609   0.12627   0.13937   0.14375   0.14497
 Alpha virt. eigenvalues --    0.15030   0.15420   0.16496   0.17116   0.19445
 Alpha virt. eigenvalues --    0.19633   0.20216   0.20862   0.26556   0.30238
 Alpha virt. eigenvalues --    0.31568   0.32030   0.32932   0.35075   0.36109
 Alpha virt. eigenvalues --    0.36984   0.37763   0.39421   0.41828   0.41983
 Alpha virt. eigenvalues --    0.42233   0.48026   0.48437   0.51802   0.52563
 Alpha virt. eigenvalues --    0.53875   0.54783   0.55331   0.55736   0.57436
 Alpha virt. eigenvalues --    0.58082   0.58519   0.58822   0.59246   0.60174
 Alpha virt. eigenvalues --    0.60379   0.60673   0.61087   0.62094   0.63033
 Alpha virt. eigenvalues --    0.64837   0.64979   0.65610   0.65646   0.67197
 Alpha virt. eigenvalues --    0.69419   0.69973   0.70434   0.70681   0.74796
 Alpha virt. eigenvalues --    0.75229   0.78792   0.79845   0.81740   0.83286
 Alpha virt. eigenvalues --    0.83804   0.84644   0.85100   0.85283   0.86116
 Alpha virt. eigenvalues --    0.86834   0.87423   0.87513   0.87937   0.89466
 Alpha virt. eigenvalues --    0.91237   0.91649   0.92498   0.92977   0.94559
 Alpha virt. eigenvalues --    0.97614   0.99486   1.03313   1.03608   1.05725
 Alpha virt. eigenvalues --    1.06122   1.07192   1.08517   1.09485   1.11781
 Alpha virt. eigenvalues --    1.11973   1.17672   1.18478   1.24004   1.26876
 Alpha virt. eigenvalues --    1.29047   1.29831   1.29863   1.30993   1.31142
 Alpha virt. eigenvalues --    1.31492   1.32451   1.33112   1.33203   1.34452
 Alpha virt. eigenvalues --    1.36279   1.37537   1.37858   1.39755   1.41908
 Alpha virt. eigenvalues --    1.44332   1.46911   1.47235   1.49328   1.51130
 Alpha virt. eigenvalues --    1.51840   1.51971   1.52524   1.76292   1.76525
 Alpha virt. eigenvalues --    1.76715   1.76729   1.77823   1.77926   1.83341
 Alpha virt. eigenvalues --    1.86197   1.86281   1.87293   1.92241   1.92636
 Alpha virt. eigenvalues --    1.92865   1.93054   1.94702   1.95337   1.97091
 Alpha virt. eigenvalues --    1.97407   1.98910   1.98964   2.03141   2.04624
 Alpha virt. eigenvalues --    2.04693   2.08736   2.09249   2.10610   2.10755
 Alpha virt. eigenvalues --    2.15284   2.17095   2.17433   2.17589   2.18862
 Alpha virt. eigenvalues --    2.21696   2.22068   2.23313   2.23607   2.25431
 Alpha virt. eigenvalues --    2.29019   2.31311   2.32869   2.36549   2.41470
 Alpha virt. eigenvalues --    2.41704   2.42445   2.45382   2.46604   2.48384
 Alpha virt. eigenvalues --    2.48686   2.48938   2.50081   2.50690   2.51134
 Alpha virt. eigenvalues --    2.53026   2.53438   2.54141   2.54778   2.56613
 Alpha virt. eigenvalues --    2.58286   2.59263   2.61855   2.62355   2.63207
 Alpha virt. eigenvalues --    2.64002   2.66363   2.67118   2.67586   2.69743
 Alpha virt. eigenvalues --    2.69857   2.70855   2.71199   2.71745   2.72853
 Alpha virt. eigenvalues --    2.77131   2.79932   2.81915   2.85329   2.86505
 Alpha virt. eigenvalues --    2.88829   2.91199   2.91489   2.92113   2.94882
 Alpha virt. eigenvalues --    2.95071   2.97879   2.98265   2.99792   3.00043
 Alpha virt. eigenvalues --    3.28013   3.28025   3.35411   3.36427   3.38183
 Alpha virt. eigenvalues --    3.40390   3.43168   3.47039   3.52134   3.53732
 Alpha virt. eigenvalues --    3.60228   3.60230   3.65437   3.66098   3.70903
 Alpha virt. eigenvalues --    3.71164   4.13697   4.13851   4.14164   4.14863
 Alpha virt. eigenvalues --    4.16345   4.18945   4.24311   4.27827   4.35273
 Alpha virt. eigenvalues --    4.43767   4.53014   4.62024   4.69580   4.74590
          Condensed to atoms (all electrons):
               1          2          3          4          5          6
     1  C    4.965507   0.618745  -0.031451   0.002703  -0.000276   0.000005
     2  C    0.618745   4.740005   0.420975  -0.019993   0.004045  -0.000268
     3  C   -0.031451   0.420975   4.861397   0.577883  -0.018360   0.002512
     4  C    0.002703  -0.019993   0.577883   4.868610   0.392819  -0.016598
     5  C   -0.000276   0.004045  -0.018360   0.392819   4.887408   0.563814
     6  C    0.000005  -0.000268   0.002512  -0.016598   0.563814   4.881178
     7  C   -0.000000   0.000002  -0.000255   0.003649  -0.017205   0.395677
     8  C   -0.000000  -0.000000   0.000004  -0.000256   0.002537  -0.017365
     9  C    0.000000   0.000000  -0.000000   0.000002  -0.000256   0.003680
    10  C    0.000000   0.000000  -0.000000  -0.000000   0.000004  -0.000256
    11  C   -0.000000   0.000000   0.000000   0.000000  -0.000000   0.000002
    12  C    0.000000  -0.000000   0.000000   0.000000  -0.000000  -0.000000
    13  C    0.000000   0.000000  -0.000000   0.000000   0.000000   0.000000
    14  C    0.000000   0.000000   0.000000  -0.000000   0.000000   0.000000
    15  H    0.382762  -0.035914  -0.012741   0.000562  -0.000000  -0.000000
    16  H   -0.050984   0.381954  -0.047472  -0.005757   0.000269  -0.000005
    17  H   -0.005167  -0.046698   0.379523  -0.051039  -0.009570   0.000550
    18  H    0.000486  -0.009061  -0.053578   0.381338  -0.048011  -0.005253
    19  H   -0.000003   0.000238  -0.005236  -0.048032   0.381117  -0.052705
    20  H    0.000000  -0.000004   0.000532  -0.009216  -0.052920   0.380922
    21  H    0.000000  -0.000000  -0.000004   0.000249  -0.005281  -0.047917
    22  H    0.000000   0.000000  -0.000000  -0.000004   0.000540  -0.009283
    23  H   -0.000000  -0.000000   0.000000  -0.000000  -0.000004   0.000251
    24  H    0.000000  -0.000000   0.000000   0.000000  -0.000000  -0.000004
    25  H   -0.000000   0.000000   0.000000  -0.000000   0.000000  -0.000000
    26  H    0.000000  -0.000000   0.000000  -0.000000   0.000000   0.000000
    27  H    0.000000   0.000000  -0.000000   0.000000   0.000000  -0.000000
    28  H    0.000000   0.000000   0.000000  -0.000000   0.000000  -0.000000
    29  H    0.000000   0.000000   0.000000   0.000000   0.000000   0.000000
    30  H    0.369500  -0.020435   0.004035  -0.000224   0.000003  -0.000000
               7          8          9         10         11         12
     1  C   -0.000000  -0.000000   0.000000   0.000000  -0.000000   0.000000
     2  C    0.000002  -0.000000   0.000000   0.000000   0.000000  -0.000000
     3  C   -0.000255   0.000004  -0.000000  -0.000000   0.000000   0.000000
     4  C    0.003649  -0.000256   0.000002  -0.000000   0.000000   0.000000
     5  C   -0.017205   0.002537  -0.000256   0.000004  -0.000000  -0.000000
     6  C    0.395677  -0.017365   0.003680  -0.000256   0.000002  -0.000000
     7  C    4.881633   0.564738  -0.017310   0.002536  -0.000256   0.000004
     8  C    0.564738   4.881755   0.395677  -0.017256   0.003649  -0.000255
     9  C   -0.017310   0.395677   4.881069   0.563817  -0.016553   0.002510
    10  C    0.002536  -0.017256   0.563817   4.887512   0.392816  -0.018393
    11  C   -0.000256   0.003649  -0.016553   0.392816   4.868547   0.577888
    12  C    0.000004  -0.000255   0.002510  -0.018393   0.577888   4.861452
    13  C   -0.000000   0.000002  -0.000268   0.004046  -0.019967   0.420975
    14  C   -0.000000  -0.000000   0.000005  -0.000276   0.002700  -0.031461
    15  H    0.000000   0.000000  -0.000000   0.000000  -0.000000   0.000000
    16  H   -0.000000   0.000000  -0.000000   0.000000   0.000000  -0.000000
    17  H   -0.000004  -0.000000   0.000000   0.000000  -0.000000   0.000000
    18  H    0.000251  -0.000004  -0.000000   0.000000  -0.000000   0.000000
    19  H   -0.009296   0.000543  -0.000004  -0.000000   0.000000   0.000000
    20  H   -0.047894  -0.005277   0.000250  -0.000004  -0.000000   0.000000
    21  H    0.380906  -0.052766  -0.009295   0.000542  -0.000004  -0.000000
    22  H   -0.052744   0.380890  -0.047894  -0.005275   0.000248  -0.000004
    23  H   -0.005283  -0.047917   0.380936  -0.052940  -0.009227   0.000533
    24  H    0.000542  -0.009288  -0.052687   0.381104  -0.048015  -0.005231
    25  H   -0.000004   0.000252  -0.005256  -0.048026   0.381344  -0.053590
    26  H   -0.000000  -0.000004   0.000549  -0.009565  -0.051030   0.379516
    27  H    0.000000  -0.000000  -0.000005   0.000269  -0.005758  -0.047476
    28  H    0.000000   0.000000  -0.000000  -0.000000   0.000562  -0.012740
    29  H   -0.000000   0.000000  -0.000000   0.000003  -0.000224   0.004035
    30  H    0.000000  -0.000000   0.000000   0.000000   0.000000   0.000000
              13         14         15         16         17         18
     1  C    0.000000   0.000000   0.382762  -0.050984  -0.005167   0.000486
     2  C    0.000000   0.000000  -0.035914   0.381954  -0.046698  -0.009061
     3  C   -0.000000   0.000000  -0.012741  -0.047472   0.379523  -0.053578
     4  C    0.000000  -0.000000   0.000562  -0.005757  -0.051039   0.381338
     5  C    0.000000   0.000000  -0.000000   0.000269  -0.009570  -0.048011
     6  C    0.000000   0.000000  -0.000000  -0.000005   0.000550  -0.005253
     7  C   -0.000000  -0.000000   0.000000  -0.000000  -0.000004   0.000251
     8  C    0.000002  -0.000000   0.000000   0.000000  -0.000000  -0.000004
     9  C   -0.000268   0.000005  -0.000000  -0.000000   0.000000  -0.000000
    10  C    0.004046  -0.000276   0.000000   0.000000   0.000000   0.000000
    11  C   -0.019967   0.002700  -0.000000   0.000000  -0.000000  -0.000000
    12  C    0.420975  -0.031461   0.000000  -0.000000   0.000000   0.000000
    13  C    4.739975   0.618752   0.000000   0.000000  -0.000000   0.000000
    14  C    0.618752   4.965531   0.000000   0.000000   0.000000  -0.000000
    15  H    0.000000   0.000000   0.601520   0.005980   0.004586   0.000014
    16  H    0.000000   0.000000   0.005980   0.631756   0.004338   0.004187
    17  H   -0.000000   0.000000   0.004586   0.004338   0.631614   0.006059
    18  H    0.000000  -0.000000   0.000014   0.004187   0.006059   0.634141
    19  H   -0.000000   0.000000   0.000001   0.000005   0.004055   0.004270
    20  H   -0.000000  -0.000000  -0.000000   0.000001   0.000014   0.004064
    21  H    0.000000   0.000000  -0.000000  -0.000000   0.000001   0.000005
    22  H   -0.000000   0.000000   0.000000  -0.000000  -0.000000   0.000001
    23  H   -0.000004   0.000000   0.000000   0.000000  -0.000000  -0.000000
    24  H    0.000238  -0.000003   0.000000   0.000000   0.000000  -0.000000
    25  H   -0.009068   0.000487   0.000000   0.000000   0.000000   0.000000
    26  H   -0.046692  -0.005163   0.000000   0.000000   0.000000   0.000000
    27  H    0.381954  -0.050987   0.000000   0.000000   0.000000   0.000000
    28  H   -0.035911   0.382761   0.000000   0.000000   0.000000   0.000000
    29  H   -0.020432   0.369498   0.000000   0.000000   0.000000   0.000000
    30  H    0.000000   0.000000  -0.042385  -0.008098   0.000025  -0.000008
              19         20         21         22         23         24
     1  C   -0.000003   0.000000   0.000000   0.000000  -0.000000   0.000000
     2  C    0.000238  -0.000004  -0.000000   0.000000  -0.000000  -0.000000
     3  C   -0.005236   0.000532  -0.000004  -0.000000   0.000000   0.000000
     4  C   -0.048032  -0.009216   0.000249  -0.000004  -0.000000   0.000000
     5  C    0.381117  -0.052920  -0.005281   0.000540  -0.000004  -0.000000
     6  C   -0.052705   0.380922  -0.047917  -0.009283   0.000251  -0.000004
     7  C   -0.009296  -0.047894   0.380906  -0.052744  -0.005283   0.000542
     8  C    0.000543  -0.005277  -0.052766   0.380890  -0.047917  -0.009288
     9  C   -0.000004   0.000250  -0.009295  -0.047894   0.380936  -0.052687
    10  C   -0.000000  -0.000004   0.000542  -0.005275  -0.052940   0.381104
    11  C    0.000000  -0.000000  -0.000004   0.000248  -0.009227  -0.048015
    12  C    0.000000   0.000000  -0.000000  -0.000004   0.000533  -0.005231
    13  C   -0.000000  -0.000000   0.000000  -0.000000  -0.000004   0.000238
    14  C    0.000000  -0.000000   0.000000   0.000000   0.000000  -0.000003
    15  H    0.000001  -0.000000  -0.000000   0.000000   0.000000   0.000000
    16  H    0.000005   0.000001  -0.000000  -0.000000   0.000000   0.000000
    17  H    0.004055   0.000014   0.000001  -0.000000  -0.000000   0.000000
    18  H    0.004270   0.004064   0.000005   0.000001  -0.000000  -0.000000
    19  H    0.634214   0.006065   0.004056   0.000014   0.000001  -0.000000
    20  H    0.006065   0.634724   0.004272   0.004053   0.000005   0.000001
    21  H    0.004056   0.004272   0.634724   0.006070   0.004060   0.000014
    22  H    0.000014   0.004053   0.006070   0.634680   0.004271   0.004050
    23  H    0.000001   0.000005   0.004060   0.004271   0.634772   0.006066
    24  H   -0.000000   0.000001   0.000014   0.004050   0.006066   0.634186
    25  H   -0.000000  -0.000000   0.000001   0.000005   0.004069   0.004269
    26  H    0.000000  -0.000000  -0.000000   0.000001   0.000014   0.004051
    27  H    0.000000   0.000000  -0.000000  -0.000000   0.000001   0.000005
    28  H    0.000000   0.000000   0.000000  -0.000000  -0.000000   0.000001
    29  H   -0.000000   0.000000  -0.000000   0.000000  -0.000000   0.000000
    30  H    0.000000  -0.000000   0.000000  -0.000000   0.000000  -0.000000
              25         26         27         28         29         30
     1  C   -0.000000   0.000000   0.000000   0.000000   0.000000   0.369500
     2  C    0.000000  -0.000000   0.000000   0.000000   0.000000  -0.020435
     3  C    0.000000   0.000000  -0.000000   0.000000   0.000000   0.004035
     4  C   -0.000000  -0.000000   0.000000  -0.000000   0.000000  -0.000224
     5  C    0.000000   0.000000   0.000000   0.000000   0.000000   0.000003
     6  C   -0.000000   0.000000  -0.000000  -0.000000   0.000000  -0.000000
     7  C   -0.000004  -0.000000   0.000000   0.000000  -0.000000   0.000000
     8  C    0.000252  -0.000004  -0.000000   0.000000   0.000000  -0.000000
     9  C   -0.005256   0.000549  -0.000005  -0.000000  -0.000000   0.000000
    10  C   -0.048026  -0.009565   0.000269  -0.000000   0.000003   0.000000
    11  C    0.381344  -0.051030  -0.005758   0.000562  -0.000224   0.000000
    12  C   -0.053590   0.379516  -0.047476  -0.012740   0.004035   0.000000
    13  C   -0.009068  -0.046692   0.381954  -0.035911  -0.020432   0.000000
    14  C    0.000487  -0.005163  -0.050987   0.382761   0.369498   0.000000
    15  H    0.000000   0.000000   0.000000   0.000000   0.000000  -0.042385
    16  H    0.000000   0.000000   0.000000   0.000000   0.000000  -0.008098
    17  H    0.000000   0.000000   0.000000   0.000000   0.000000   0.000025
    18  H    0.000000   0.000000   0.000000   0.000000   0.000000  -0.000008
    19  H   -0.000000   0.000000   0.000000   0.000000  -0.000000   0.000000
    20  H   -0.000000  -0.000000   0.000000   0.000000   0.000000  -0.000000
    21  H    0.000001  -0.000000  -0.000000   0.000000  -0.000000   0.000000
    22  H    0.000005   0.000001  -0.000000  -0.000000   0.000000  -0.000000
    23  H    0.004069   0.000014   0.000001  -0.000000  -0.000000   0.000000
    24  H    0.004269   0.004051   0.000005   0.000001   0.000000  -0.000000
    25  H    0.634179   0.006060   0.004191   0.000014  -0.000008   0.000000
    26  H    0.006060   0.631609   0.004338   0.004584   0.000025   0.000000
    27  H    0.004191   0.004338   0.631777   0.005981  -0.008101   0.000000
    28  H    0.000014   0.004584   0.005981   0.601530  -0.042386   0.000000
    29  H   -0.000008   0.000025  -0.008101  -0.042386   0.602108   0.000000
    30  H    0.000000   0.000000   0.000000   0.000000   0.000000   0.602091
 Mulliken charges:
               1
     1  C   -0.251828
     2  C   -0.033593
     3  C   -0.077763
     4  C   -0.076697
     5  C   -0.080671
     6  C   -0.078937
     7  C   -0.079689
     8  C   -0.079661
     9  C   -0.078969
    10  C   -0.080656
    11  C   -0.076724
    12  C   -0.077763
    13  C   -0.033600
    14  C   -0.251843
    15  H    0.095614
    16  H    0.083825
    17  H    0.081711
    18  H    0.081099
    19  H    0.080697
    20  H    0.080415
    21  H    0.080368
    22  H    0.080381
    23  H    0.080397
    24  H    0.080702
    25  H    0.081082
    26  H    0.081706
    27  H    0.083812
    28  H    0.095604
    29  H    0.095483
    30  H    0.095496
 Sum of Mulliken charges =  -0.00000
 Mulliken charges with hydrogens summed into heavy atoms:
               1
     1  C   -0.060718
     2  C    0.050232
     3  C    0.003948
     4  C    0.004403
     5  C    0.000026
     6  C    0.001478
     7  C    0.000679
     8  C    0.000720
     9  C    0.001428
    10  C    0.000046
    11  C    0.004358
    12  C    0.003944
    13  C    0.050213
    14  C   -0.060756
 Electronic spatial extent (au):  <R**2>=           9420.0441
 Charge=             -0.0000 electrons
 Dipole moment (field-independent basis, Debye):
    X=             -0.0029    Y=              0.0004    Z=              0.0043  Tot=              0.0052
 Quadrupole moment (field-independent basis, Debye-Ang):
   XX=            -81.0381   YY=            -74.1520   ZZ=            -92.2600
   XY=             -0.9897   XZ=             -0.0027   YZ=              0.0017
 Traceless Quadrupole moment (field-independent basis, Debye-Ang):
   XX=              1.4453   YY=              8.3314   ZZ=             -9.7766
   XY=             -0.9897   XZ=             -0.0027   YZ=              0.0017
 Octapole moment (field-independent basis, Debye-Ang**2):
  XXX=             -0.1633  YYY=              0.0057  ZZZ=             -0.0141  XYY=              0.0051
  XXY=              0.0316  XXZ=              0.6731  XZZ=             -0.0025  YZZ=              0.0009
  YYZ=             -0.0017  XYZ=              0.2224
 Hexadecapole moment (field-independent basis, Debye-Ang**3):
 XXXX=         -12209.0760 YYYY=           -236.5314 ZZZZ=            -95.7213 XXXY=            -90.4490
 XXXZ=             -0.3167 YYYX=              0.3295 YYYZ=              0.0033 ZZZX=              0.0012
 ZZZY=              0.0014 XXYY=          -1959.2474 XXZZ=          -2391.7496 YYZZ=            -62.3077
 XXYZ=             -0.0115 YYXZ=             -0.0009 ZZXY=             -0.5050
 N-N= 6.640825588200D+02 E-N=-2.584095525130D+03  KE= 5.376568656952D+02
 Calling FoFJK, ICntrl=      2127 FMM=F ISym2X=0 I1Cent= 0 IOpClX= 0 NMat=1 NMatS=1 NMatT=0.
 ***** Axes restored to original set *****
 -------------------------------------------------------------------
 Center     Atomic                   Forces (Hartrees/Bohr)
 Number     Number              X              Y              Z
 -------------------------------------------------------------------
      1        6          -0.008618159    0.003489243   -0.000091200
      2        6           0.021139912    0.000012837   -0.013170390
      3        6          -0.029713915    0.005337374    0.010158156
      4        6           0.033430535   -0.006676668   -0.010397663
      5        6          -0.034466828    0.007986285    0.009045897
      6        6           0.035296904   -0.008229747   -0.009223994
      7        6          -0.035515886    0.008551460    0.008926128
      8        6           0.035503388   -0.008562000   -0.008947952
      9        6          -0.035274707    0.008288020    0.009284133
     10        6           0.034424984   -0.008059153   -0.009139927
     11        6          -0.033387184    0.006761771    0.010503925
     12        6           0.029669502   -0.005407629   -0.010261053
     13        6          -0.021123964   -0.000028556    0.013202757
     14        6           0.008600364   -0.003551733    0.000035407
     15        1          -0.002065849    0.001183991   -0.000550722
     16        1           0.003879650   -0.002965131    0.002230700
     17        1          -0.002871641    0.001716048   -0.000867389
     18        1           0.002627019   -0.001622606    0.000910356
     19        1          -0.002656989    0.001630265   -0.000847116
     20        1           0.002647243   -0.001625331    0.000895767
     21        1          -0.002648591    0.001648234   -0.000861490
     22        1           0.002659268   -0.001626141    0.000874836
     23        1          -0.002636081    0.001659202   -0.000873629
     24        1           0.002663970   -0.001624971    0.000849709
     25        1          -0.002617582    0.001660736   -0.000882647
     26        1           0.002871400   -0.001729033    0.000858598
     27        1          -0.003864582    0.003027276   -0.002180060
     28        1           0.002060885   -0.001197828    0.000544431
     29        1          -0.000040900   -0.002451165    0.003748340
     30        1           0.000027834    0.002404952   -0.003773908
 -------------------------------------------------------------------
 Cartesian Forces:  Max     0.035515886 RMS     0.012690583

 GradGradGradGradGradGradGradGradGradGradGradGradGradGradGradGradGradGrad
 Berny optimization.
 FormGI is forming the generalized inverse of G from B-inverse, IUseBI=4.
 Internal  Forces:  Max     0.021299809 RMS     0.007662338
 Search for a local minimum.
 Step number   1 out of a maximum of  133
 All quantities printed in internal units (Hartrees-Bohrs-Radians)
 Mixed Optimization -- RFO/linear search
 Second derivative matrix not updated -- first step.
 ITU=  0
     Eigenvalues ---    0.01060   0.01060   0.01060   0.01060   0.01066
     Eigenvalues ---    0.01066   0.01978   0.01978   0.01978   0.01979
     Eigenvalues ---    0.01979   0.01979   0.01979   0.01979   0.01982
     Eigenvalues ---    0.01983   0.01999   0.01999   0.02888   0.02888
     Eigenvalues ---    0.02888   0.02888   0.02889   0.02949   0.02949
     Eigenvalues ---    0.02949   0.02949   0.16000   0.16000   0.16000
     Eigenvalues ---    0.16000   0.16000   0.16000   0.16000   0.16000
     Eigenvalues ---    0.16000   0.16000   0.16000   0.16000   0.16000
     Eigenvalues ---    0.16000   0.16000   0.16000   0.22000   0.22000
     Eigenvalues ---    0.22000   0.22000   0.22000   0.22000   0.22000
     Eigenvalues ---    0.22000   0.22000   0.22000   0.22000   0.22000
     Eigenvalues ---    0.34822   0.34824   0.34824   0.34825   0.34880
     Eigenvalues ---    0.34882   0.35078   0.35079   0.35079   0.35079
     Eigenvalues ---    0.35080   0.35080   0.35080   0.35080   0.35081
     Eigenvalues ---    0.35081   0.35191   0.35192   0.35271   0.35272
     Eigenvalues ---    0.35371   0.35372   0.57298   0.57301   0.57301
     Eigenvalues ---    0.57307   0.57311   0.58341   0.58343
 RFO step:  Lambda=-2.22741489D-02 EMin= 1.05954681D-02
 Linear search not attempted -- first point.
 Iteration  1 RMS(Cart)=  0.06758559 RMS(Int)=  0.00049863
 Iteration  2 RMS(Cart)=  0.00152718 RMS(Int)=  0.00000322
 Iteration  3 RMS(Cart)=  0.00000023 RMS(Int)=  0.00000322
 Variable       Old X    -DE/DX   Delta X   Delta X   Delta X     New X
                                 (Linear)    (Quad)   (Total)
    R1        2.52278   0.01186   0.00000   0.01958   0.01958   2.54236
    R2        2.05237  -0.00020   0.00000  -0.00053  -0.00053   2.05184
    R3        2.05076   0.00017   0.00000   0.00046   0.00046   2.05122
    R4        2.79167  -0.01412   0.00000  -0.03806  -0.03806   2.75361
    R5        2.05365   0.00063   0.00000   0.00168   0.00168   2.05532
    R6        2.53137   0.01869   0.00000   0.03139   0.03139   2.56276
    R7        2.05549  -0.00026   0.00000  -0.00071  -0.00071   2.05478
    R8        2.79261  -0.01781   0.00000  -0.04806  -0.04806   2.74455
    R9        2.05547  -0.00013   0.00000  -0.00036  -0.00036   2.05511
   R10        2.53145   0.02081   0.00000   0.03497   0.03497   2.56641
   R11        2.05545  -0.00020   0.00000  -0.00053  -0.00053   2.05492
   R12        2.79260  -0.01868   0.00000  -0.05040  -0.05040   2.74220
   R13        2.05544  -0.00015   0.00000  -0.00041  -0.00041   2.05503
   R14        2.53142   0.02130   0.00000   0.03578   0.03578   2.56721
   R15        2.05545  -0.00017   0.00000  -0.00047  -0.00047   2.05498
   R16        2.79262  -0.01868   0.00000  -0.05041  -0.05041   2.74220
   R17        2.05544  -0.00017   0.00000  -0.00047  -0.00047   2.05498
   R18        2.53142   0.02083   0.00000   0.03498   0.03498   2.56641
   R19        2.05545  -0.00015   0.00000  -0.00041  -0.00041   2.05504
   R20        2.79265  -0.01781   0.00000  -0.04808  -0.04808   2.74457
   R21        2.05544  -0.00020   0.00000  -0.00053  -0.00053   2.05492
   R22        2.53134   0.01871   0.00000   0.03142   0.03142   2.56276
   R23        2.05547  -0.00013   0.00000  -0.00036  -0.00036   2.05511
   R24        2.79171  -0.01413   0.00000  -0.03809  -0.03809   2.75362
   R25        2.05548  -0.00026   0.00000  -0.00070  -0.00070   2.05478
   R26        2.52276   0.01187   0.00000   0.01960   0.01960   2.54236
   R27        2.05366   0.00062   0.00000   0.00167   0.00167   2.05533
   R28        2.05235  -0.00019   0.00000  -0.00051  -0.00051   2.05184
   R29        2.05077   0.00017   0.00000   0.00045   0.00045   2.05122
    A1        2.11473   0.00028   0.00000   0.00151   0.00151   2.11625
    A2        2.09388   0.00445   0.00000   0.02440   0.02440   2.11828
    A3        2.07458  -0.00472   0.00000  -0.02591  -0.02591   2.04866
    A4        2.11393   0.01183   0.00000   0.04883   0.04883   2.16276
    A5        2.07626  -0.00044   0.00000   0.00562   0.00562   2.08188
    A6        2.09299  -0.01139   0.00000  -0.05445  -0.05445   2.03854
    A7        2.11058   0.01215   0.00000   0.05014   0.05014   2.16072
    A8        2.08137  -0.00962   0.00000  -0.04450  -0.04450   2.03687
    A9        2.09124  -0.00253   0.00000  -0.00564  -0.00564   2.08559
   A10        2.11073   0.01270   0.00000   0.05242   0.05242   2.16315
   A11        2.09050  -0.00304   0.00000  -0.00807  -0.00807   2.08243
   A12        2.08195  -0.00966   0.00000  -0.04434  -0.04434   2.03761
   A13        2.11105   0.01240   0.00000   0.05117   0.05117   2.16222
   A14        2.08161  -0.00951   0.00000  -0.04376  -0.04377   2.03785
   A15        2.09052  -0.00288   0.00000  -0.00741  -0.00741   2.08311
   A16        2.11063   0.01263   0.00000   0.05212   0.05212   2.16276
   A17        2.09069  -0.00300   0.00000  -0.00785  -0.00785   2.08284
   A18        2.08186  -0.00963   0.00000  -0.04427  -0.04427   2.03759
   A19        2.11109   0.01251   0.00000   0.05163   0.05163   2.16272
   A20        2.08160  -0.00958   0.00000  -0.04404  -0.04404   2.03757
   A21        2.09049  -0.00293   0.00000  -0.00760  -0.00760   2.08290
   A22        2.11062   0.01258   0.00000   0.05191   0.05191   2.16253
   A23        2.09069  -0.00297   0.00000  -0.00773  -0.00773   2.08296
   A24        2.08187  -0.00961   0.00000  -0.04418  -0.04418   2.03769
   A25        2.11106   0.01257   0.00000   0.05187   0.05187   2.16294
   A26        2.08162  -0.00960   0.00000  -0.04416  -0.04416   2.03747
   A27        2.09050  -0.00296   0.00000  -0.00772  -0.00772   2.08278
   A28        2.11068   0.01245   0.00000   0.05139   0.05139   2.16208
   A29        2.09066  -0.00291   0.00000  -0.00750  -0.00750   2.08317
   A30        2.08184  -0.00954   0.00000  -0.04390  -0.04390   2.03794
   A31        2.11101   0.01266   0.00000   0.05226   0.05226   2.16327
   A32        2.08181  -0.00964   0.00000  -0.04429  -0.04429   2.03752
   A33        2.09037  -0.00302   0.00000  -0.00797  -0.00797   2.08239
   A34        2.11039   0.01218   0.00000   0.05026   0.05026   2.16065
   A35        2.09130  -0.00254   0.00000  -0.00568  -0.00568   2.08563
   A36        2.08149  -0.00963   0.00000  -0.04458  -0.04458   2.03691
   A37        2.11402   0.01182   0.00000   0.04879   0.04879   2.16281
   A38        2.09295  -0.01139   0.00000  -0.05445  -0.05445   2.03850
   A39        2.07621  -0.00043   0.00000   0.00566   0.00566   2.08187
   A40        2.11474   0.00028   0.00000   0.00151   0.00151   2.11625
   A41        2.09383   0.00445   0.00000   0.02442   0.02442   2.11826
   A42        2.07461  -0.00473   0.00000  -0.02593  -0.02593   2.04867
    D1       -0.00010  -0.00000   0.00000  -0.00003  -0.00003  -0.00013
    D2       -3.14129  -0.00001   0.00000  -0.00024  -0.00024  -3.14153
    D3        3.14127   0.00001   0.00000   0.00014   0.00015   3.14142
    D4        0.00009  -0.00000   0.00000  -0.00007  -0.00007   0.00002
    D5       -3.14005  -0.00002   0.00000  -0.00054  -0.00053  -3.14058
    D6        0.00076  -0.00000   0.00000  -0.00008  -0.00008   0.00068
    D7        0.00113  -0.00001   0.00000  -0.00031  -0.00031   0.00082
    D8       -3.14124   0.00001   0.00000   0.00015   0.00014  -3.14110
    D9        3.14036   0.00002   0.00000   0.00052   0.00053   3.14089
   D10       -0.00012  -0.00000   0.00000  -0.00008  -0.00008  -0.00020
   D11       -0.00045   0.00000   0.00000   0.00008   0.00008  -0.00037
   D12       -3.14093  -0.00002   0.00000  -0.00052  -0.00052  -3.14145
   D13       -3.13824  -0.00005   0.00000  -0.00120  -0.00119  -3.13942
   D14        0.00192  -0.00001   0.00000  -0.00036  -0.00037   0.00156
   D15        0.00225  -0.00002   0.00000  -0.00058  -0.00058   0.00167
   D16       -3.14078   0.00002   0.00000   0.00025   0.00025  -3.14054
   D17        3.13953   0.00004   0.00000   0.00090   0.00091   3.14043
   D18       -0.00043   0.00000   0.00000   0.00000   0.00000  -0.00043
   D19       -0.00062   0.00000   0.00000   0.00009   0.00009  -0.00053
   D20       -3.14058  -0.00003   0.00000  -0.00080  -0.00081  -3.14139
   D21       -3.13726  -0.00006   0.00000  -0.00156  -0.00155  -3.13881
   D22        0.00263  -0.00002   0.00000  -0.00059  -0.00059   0.00204
   D23        0.00270  -0.00002   0.00000  -0.00064  -0.00064   0.00207
   D24       -3.14059   0.00002   0.00000   0.00034   0.00033  -3.14027
   D25        3.13930   0.00004   0.00000   0.00100   0.00101   3.14031
   D26       -0.00062   0.00000   0.00000   0.00007   0.00007  -0.00054
   D27       -0.00057   0.00000   0.00000   0.00005   0.00005  -0.00052
   D28       -3.14049  -0.00003   0.00000  -0.00087  -0.00088  -3.14137
   D29       -3.13759  -0.00006   0.00000  -0.00144  -0.00143  -3.13903
   D30        0.00253  -0.00002   0.00000  -0.00062  -0.00062   0.00191
   D31        0.00234  -0.00002   0.00000  -0.00049  -0.00049   0.00185
   D32       -3.14073   0.00002   0.00000   0.00034   0.00033  -3.14040
   D33        3.13976   0.00003   0.00000   0.00080   0.00080   3.14057
   D34       -0.00059   0.00000   0.00000   0.00010   0.00010  -0.00049
   D35       -0.00035   0.00000   0.00000  -0.00000  -0.00000  -0.00036
   D36       -3.14070  -0.00003   0.00000  -0.00070  -0.00071  -3.14141
   D37       -3.13894  -0.00004   0.00000  -0.00096  -0.00095  -3.13989
   D38        0.00176  -0.00002   0.00000  -0.00046  -0.00046   0.00130
   D39        0.00142  -0.00001   0.00000  -0.00024  -0.00024   0.00118
   D40       -3.14107   0.00002   0.00000   0.00025   0.00025  -3.14082
   D41        3.14061   0.00002   0.00000   0.00042   0.00042   3.14103
   D42       -0.00038   0.00000   0.00000   0.00008   0.00008  -0.00030
   D43       -0.00008  -0.00000   0.00000  -0.00006  -0.00006  -0.00014
   D44       -3.14107  -0.00002   0.00000  -0.00040  -0.00040  -3.14148
   D45       -3.14053  -0.00002   0.00000  -0.00038  -0.00038  -3.14091
   D46        0.00076  -0.00001   0.00000  -0.00021  -0.00021   0.00054
   D47        0.00046   0.00000   0.00000  -0.00003  -0.00003   0.00043
   D48       -3.14144   0.00001   0.00000   0.00014   0.00014  -3.14130
   D49       -0.00009  -0.00000   0.00000  -0.00002  -0.00001  -0.00010
   D50        3.14136   0.00000   0.00000   0.00011   0.00011   3.14147
   D51       -3.14138  -0.00001   0.00000  -0.00017  -0.00017  -3.14155
   D52        0.00007  -0.00000   0.00000  -0.00005  -0.00005   0.00002
         Item               Value     Threshold  Converged?
 Maximum Force            0.021300     0.000450     NO 
 RMS     Force            0.007662     0.000300     NO 
 Maximum Displacement     0.211274     0.001800     NO 
 RMS     Displacement     0.066280     0.001200     NO 
 Predicted change in Energy=-1.201714D-02
 GradGradGradGradGradGradGradGradGradGradGradGradGradGradGradGradGradGrad

                          Input orientation:                          
 ---------------------------------------------------------------------
 Center     Atomic      Atomic             Coordinates (Angstroms)
 Number     Number       Type             X           Y           Z
 ---------------------------------------------------------------------
      1          6           0       13.034489   -3.753682   -2.405607
      2          6           0       13.657008   -4.565180   -1.531573
      3          6           0       15.033127   -5.019960   -1.682402
      4          6           0       15.657993   -5.838955   -0.800387
      5          6           0       17.029035   -6.294741   -0.948155
      6          6           0       17.652964   -7.116884   -0.065436
      7          6           0       19.022320   -7.573794   -0.213136
      8          6           0       19.645393   -8.398689    0.668266
      9          6           0       21.014276   -8.856685    0.519535
     10          6           0       21.636679   -9.683604    1.398861
     11          6           0       23.006445  -10.142326    1.248302
     12          6           0       23.628687  -10.969542    2.124477
     13          6           0       25.003063  -11.428316    1.969828
     14          6           0       25.622512  -12.249464    2.837001
     15          1           0       13.541435   -3.386435   -3.292778
     16          1           0       13.118672   -4.914182   -0.653317
     17          1           0       15.570002   -4.669737   -2.560710
     18          1           0       15.118207   -6.187575    0.076987
     19          1           0       17.569313   -5.945470   -1.824848
     20          1           0       17.112354   -7.466171    0.811116
     21          1           0       19.563309   -7.223479   -1.089013
     22          1           0       19.104395   -8.749202    1.544052
     23          1           0       21.555468   -8.505118   -0.355751
     24          1           0       21.095803  -10.035503    2.274129
     25          1           0       23.547245   -9.789561    0.373208
     26          1           0       23.090775  -11.324151    3.000384
     27          1           0       25.542608  -11.074282    1.094331
     28          1           0       25.114273  -12.622027    3.721211
     29          1           0       26.649092  -12.565642    2.680849
     30          1           0       12.006616   -3.440326   -2.252294
 ---------------------------------------------------------------------
                    Distance matrix (angstroms):
                    1          2          3          4          5
     1  C    0.000000
     2  C    1.345360   0.000000
     3  C    2.474073   1.457147   0.000000
     4  C    3.715894   2.482151   1.356157   0.000000
     5  C    4.953539   3.834361   2.479483   1.452355   0.000000
     6  C    6.173965   4.962703   3.724946   2.480558   1.358087
     7  C    7.433324   6.290994   4.959281   3.830565   2.479801
     8  C    8.644584   7.442837   6.181783   4.960699   3.726223
     9  C    9.913330   8.760905   7.439297   6.287978   4.959821
    10  C   11.119156   9.922744   8.651628   7.440612   6.182496
    11  C   12.393778  11.235846   9.919752   8.758761   7.440280
    12  C   13.595122  12.402296  11.125354   9.920168   8.651603
    13  C   14.875860  13.714788  12.401832  11.235897   9.922365
    14  C   16.066162  14.876355  13.595066  12.394227  11.119082
    15  H    1.085789   2.122414   2.736212   4.087381   5.110661
    16  H    2.103418   1.087631   2.176084   2.706471   4.157380
    17  H    2.700378   2.174765   1.087343   2.115077   2.714728
    18  H    4.053269   2.711962   2.113295   1.087516   2.171098
    19  H    5.070093   4.159007   2.703535   2.171177   1.087419
    20  H    6.384267   5.083636   4.065067   2.712921   2.115236
    21  H    7.509887   6.492057   5.072490   4.153517   2.702765
    22  H    8.797658   7.525924   6.394723   5.083662   4.067259
    23  H    9.969209   8.904568   7.513139   6.487399   5.072012
    24  H   11.240373   9.987165   8.807148   7.525520   6.396485
    25  H   12.436708  11.346327   9.973206   8.900838   7.513111
    26  H   13.699110  12.458663  11.251533   9.988968   8.810824
    27  H   14.909521  13.803307  12.442438  11.344789   9.974803
    28  H   16.189707  14.959059  13.733899  12.485037  11.278679
    29  H   16.996473  15.828649  14.522601  13.348093  12.043229
    30  H    1.085458   2.123329   3.461183   4.603694   5.922259
                    6          7          8          9         10
     6  C    0.000000
     7  C    1.451109   0.000000
     8  C    2.480144   1.358507   0.000000
     9  C    3.829820   2.480022   1.451111   0.000000
    10  C    4.960061   3.726219   2.479919   1.358085   0.000000
    11  C    6.288002   4.960486   3.830586   2.480466   1.452362
    12  C    7.439621   6.181760   4.959483   3.724936   2.479567
    13  C    8.760976   7.442578   6.291052   4.962565   3.834392
    14  C    9.913688   8.644522   7.433562   6.173931   4.953660
    15  H    6.421577   7.553692   8.835771  10.015025  11.278244
    16  H    5.075166   6.490019   7.515747   8.902779   9.975734
    17  H    4.068618   5.085582   6.398451   7.527189   8.810314
    18  H    2.703496   4.153055   5.072873   6.487190   7.513990
    19  H    2.115358   2.712984   4.067432   5.083215   6.396046
    20  H    1.087476   2.169941   2.703014   4.152535   5.072669
    21  H    2.169905   1.087451   2.115628   2.712950   4.067013
    22  H    2.713220   2.115663   1.087447   2.169985   2.703082
    23  H    4.152230   2.702692   2.169868   1.087481   2.115204
    24  H    5.083802   4.067657   2.713236   2.115386   1.087416
    25  H    6.486768   5.072315   4.152835   2.703257   2.171050
    26  H    7.527957   6.398767   5.086036   4.068764   2.714897
    27  H    8.902390   7.515122   6.489799   5.074832   4.157284
    28  H   10.015809   8.836042   7.554185   6.421721   5.110900
    29  H   10.870205   9.563543   8.394391   7.083699   5.922324
    30  H    7.083832   8.394273   9.563782  10.870047  12.043569
                   11         12         13         14         15
    11  C    0.000000
    12  C    1.356154   0.000000
    13  C    2.482106   1.457154   0.000000
    14  C    3.715885   2.474112   1.345359   0.000000
    15  H   12.483985  13.733274  14.957800  16.188881   0.000000
    16  H   11.345383  12.443631  13.804114  14.910892   3.078878
    17  H    9.987918  11.250819  12.457399  13.698193   2.509556
    18  H    8.901479   9.974352  11.347184  12.438030   4.657028
    19  H    7.524643   8.806502   9.986080  11.239537   4.992723
    20  H    6.487932   7.514062   8.905307   9.970301   6.799827
    21  H    5.083099   6.394279   7.525163   8.797048   7.472781
    22  H    4.153825   5.073068   6.492551   7.510619   9.115959
    23  H    2.712706   4.064868   5.083239   6.383936   9.952475
    24  H    2.171240   2.703761   4.159231   5.070457  11.500827
    25  H    1.087519   2.113275   2.711848   4.053163  12.432044
    26  H    2.115091   1.087341   2.174797   2.700480  13.921246
    27  H    2.706358   2.176066   1.087632   2.103411  14.912340
    28  H    4.087436   2.736281   2.122418   1.085788  16.383613
    29  H    4.603643   3.461204   2.123317   1.085458  17.080771
    30  H   13.347929  14.523007  15.828516  16.996895   1.855042
                   16         17         18         19         20
    16  H    0.000000
    17  H    3.115593   0.000000
    18  H    2.480527   3.076589   0.000000
    19  H    4.716380   2.483190   3.111834   0.000000
    20  H    4.960515   4.644147   2.479994   3.077279   0.000000
    21  H    6.859740   4.963264   4.710794   2.480077   3.110719
    22  H    7.440745   6.781080   4.960232   4.644015   2.480240
    23  H    9.174033   7.442969   6.855406   4.959786   4.709804
    24  H    9.921315   9.094042   7.440809   6.779831   4.960821
    25  H   11.557604   9.922544   9.171190   7.439365   6.855490
    26  H   12.404840  11.479069   9.924338   9.093932   7.444355
    27  H   13.976956  12.402838  11.557813   9.919665   9.174305
    28  H   14.914483  13.921011  12.433980  11.500504   9.954005
    29  H   15.897603  14.579626  13.432094  12.106625  10.974967
    30  H    2.442467   3.782101   4.759719   6.115722   7.187521
                   21         22         23         24         25
    21  H    0.000000
    22  H    3.077574   0.000000
    23  H    2.479711   3.110722   0.000000
    24  H    4.644000   2.480583   3.077278   0.000000
    25  H    4.959296   4.710854   2.479587   3.111841   0.000000
    26  H    6.780980   4.964120   4.644110   2.483540   3.076586
    27  H    7.439603   6.859945   4.959902   4.716467   2.480323
    28  H    9.115688   7.473783   6.799680   4.993221   4.656991
    29  H    9.641519   8.531118   7.187058   6.116048   4.759547
    30  H    8.530479   9.642347  10.974040  12.107773  13.431015
                   26         27         28         29         30
    26  H    0.000000
    27  H    3.115599   0.000000
    28  H    2.509705   3.078877   0.000000
    29  H    3.782198   2.442438   1.855047   0.000000
    30  H   14.580942  15.896549  17.082068  17.944620   0.000000
 Stoichiometry    C14H16
 Framework group  C1[X(C14H16)]
 Deg. of freedom    84
 Full point group                 C1      NOp   1
 Largest Abelian subgroup         C1      NOp   1
 Largest concise Abelian subgroup C1      NOp   1
                         Standard orientation:                         
 ---------------------------------------------------------------------
 Center     Atomic      Atomic             Coordinates (Angstroms)
 Number     Number       Type             X           Y           Z
 ---------------------------------------------------------------------
      1          6           0       -8.029236   -0.246108    0.012107
      2          6           0       -6.846139    0.394389    0.005726
      3          6           0       -5.555439   -0.281897    0.002717
      4          6           0       -4.364162    0.366171   -0.002580
      5          6           0       -3.076073   -0.304765   -0.004738
      6          6           0       -1.883697    0.345336   -0.007599
      7          6           0       -0.596352   -0.324334   -0.008358
      8          6           0        0.596371    0.326013   -0.008077
      9          6           0        1.883593   -0.343902   -0.007291
     10          6           0        3.076204    0.305760   -0.004117
     11          6           0        4.363956   -0.365839   -0.002094
     12          6           0        5.555642    0.281472    0.002992
     13          6           0        6.845870   -0.395731    0.005686
     14          6           0        8.029453    0.243869    0.011495
     15          1           0       -8.082685   -1.330576    0.015305
     16          1           0       -6.829952    1.481895    0.002720
     17          1           0       -5.573445   -1.369088    0.005250
     18          1           0       -4.349598    1.453587   -0.004969
     19          1           0       -3.090376   -1.392089   -0.003376
     20          1           0       -1.869694    1.432721   -0.008769
     21          1           0       -0.610382   -1.411695   -0.008473
     22          1           0        0.610471    1.413368   -0.007755
     23          1           0        1.869251   -1.431287   -0.008771
     24          1           0        3.090965    1.393075   -0.002465
     25          1           0        4.348738   -1.453249   -0.004499
     26          1           0        5.574372    1.368648    0.005515
     27          1           0        6.828868   -1.483227    0.002885
     28          1           0        8.083736    1.328295    0.014462
     29          1           0        8.967142   -0.302899    0.013426
     30          1           0       -8.967349    0.299930    0.014297
 ---------------------------------------------------------------------
 Rotational constants (GHZ):          10.9362174           0.1073828           0.1063391
 Standard basis: 6-31G(d,p) (6D, 7F)
 There are   290 symmetry adapted cartesian basis functions of A   symmetry.
 There are   290 symmetry adapted basis functions of A   symmetry.
   290 basis functions,   504 primitive gaussians,   290 cartesian basis functions
    50 alpha electrons       50 beta electrons
       nuclear repulsion energy       660.3154348096 Hartrees.
 NAtoms=   30 NActive=   30 NUniq=   30 SFac= 1.00D+00 NAtFMM=   60 NAOKFM=F Big=F
 Integral buffers will be    131072 words long.
 Raffenetti 2 integral format.
 Two-electron integral symmetry is turned on.
 One-electron integrals computed using PRISM.
 NBasis=   290 RedAO= T EigKep=  1.33D-03  NBF=   290
 NBsUse=   290 1.00D-06 EigRej= -1.00D+00 NBFU=   290
 Initial guess from the checkpoint file:  "./chk/7.chk"
 B after Tr=     0.000000   -0.000000   -0.000000
         Rot=    1.000000    0.000028    0.000000    0.000472 Ang=   0.05 deg.
 ExpMin= 1.61D-01 ExpMax= 3.05D+03 ExpMxC= 4.57D+02 IAcc=3 IRadAn=         5 AccDes= 0.00D+00
 Harris functional with IExCor=  402 and IRadAn=       5 diagonalized for initial guess.
 HarFok:  IExCor=  402 AccDes= 0.00D+00 IRadAn=         5 IDoV= 1 UseB2=F ITyADJ=14
 ICtDFT=  3500011 ScaDFX=  1.000000  1.000000  1.000000  1.000000
 FoFCou: FMM=F IPFlag=           0 FMFlag=      100000 FMFlg1=           0
         NFxFlg=           0 DoJE=T BraDBF=F KetDBF=T FulRan=T
         wScrn=  0.000000 ICntrl=       500 IOpCl=  0 I1Cent=   200000004 NGrid=           0
         NMat0=    1 NMatS0=      1 NMatT0=    0 NMatD0=    1 NMtDS0=    0 NMtDT0=    0
 Petite list used in FoFCou.
 Requested convergence on RMS density matrix=1.00D-08 within 128 cycles.
 Requested convergence on MAX density matrix=1.00D-06.
 Requested convergence on             energy=1.00D-06.
 No special actions if energy rises.
 Integral accuracy reduced to 1.0D-05 until final iterations.
 Initial convergence to 1.0D-05 achieved.  Increase integral accuracy.
[...]
 0004716,-0.00004561,0.00004936,0.00000095,0.00000193,0.00000056,0.0000
 0088,0.00000093,0.00000050,-0.00000218,-0.00000425,-0.00000481,0.00000
 381,0.00000168,0.00000085,0.00000064,0.00001723,0.00000222,0.00004042,
 -0.00000942,-0.00000111,0.00006725,0.00032703,-0.00000762,0.00077743,0
 .00013368,-0.00029411,0.00398368,0.00374827,0.00546857,0.03756285,0.06
 762513,0.00000438,-0.00000031,-0.00000573,0.00000515,0.00000335,0.0000
 1309,-0.00000886,0.00001109,-0.00001817,0.00000944,-0.00005241,-0.0000
 1556,-0.00003240,0.00004723,-0.00001834,0.00007292,0.00005572,0.000077
 22,-0.00048488,-0.00000213,0.00020484,0.00071229,-0.00353166,-0.000743
 36,0.01249917,0.00764161,-0.01474965,0.11044232,0.07602295,-0.22512926
 ,0.00120058,0.00225790,-0.00125222,-0.00150375,-0.00067349,0.00013014,
 -0.00009382,-0.00033424,0.00032341,0.00010301,-0.00001507,-0.00007355,
 -0.00000012,0.00000071,0.00000165,-0.00000020,0.00000084,0.00000044,-0
 .00000141,-0.00000479,0.,-0.00000248,0.00000212,0.00000206,0.00000686,
 0.00000222,0.00001124,-0.00003711,0.00001696,0.00000320,0.00017541,-0.
 00000764,0.00025185,-0.00106143,0.00031258,0.00043661,-0.00055153,0.00
 546576,0.00084139,-0.12250962,-0.08840354,0.23773108,-0.00003046,0.000
 00863,0.00000419,0.00003151,0.00000410,-0.00002596,-0.00003339,-0.0000
 0364,0.00002584,0.00003280,0.00000790,-0.00003516,-0.00004217,-0.00001
 043,0.00003388,0.00005848,0.00001126,-0.00004114,-0.00003231,0.0000182
 1,-0.00001755,-0.00000485,0.00020229,-0.00044834,0.00114721,-0.0018614
 3,0.00097356,-0.01272592,-0.00998707,0.02511113,-0.12383199,-0.0379689
 9,0.11059963,0.01002013,0.00535406,-0.01145449,0.00033535,-0.00084770,
 -0.00270248,0.00009695,-0.00000803,0.00000944,0.00000100,0.00000031,-0
 .00000037,-0.00000266,-0.00000133,0.00000432,-0.00000014,0.00000114,-0
 .00000064,-0.00000320,-0.00000141,0.00000496,-0.00000166,0.00000381,-0
 .00000248,0.00000347,-0.00000425,0.00000784,-0.00003432,0.00004046,-0.
 00003678,0.00028338,-0.00000409,-0.00009286,0.00003720,0.00077810,-0.0
 0106922,-0.00404280,0.00282754,0.00069308,0.12884053,-0.00000950,0.000
 00007,0.00000215,0.00000650,0.00000399,-0.00001026,-0.00000407,-0.0000
 0715,0.00001217,-0.00000340,0.00000802,-0.00001663,0.00000113,-0.00002
 341,0.00001449,-0.00002176,0.00004021,-0.00001719,-0.00001547,-0.00005
 009,0.00006292,-0.00006283,-0.00008031,-0.00018340,-0.00019457,-0.0007
 0423,-0.00170716,0.00551176,0.00547432,-0.00736758,-0.03735312,-0.0739
 3233,0.07540599,-0.01020296,-0.00236970,0.01747879,-0.00304173,-0.0033
 8009,-0.00229719,0.00023286,0.00009165,-0.00014405,0.00000069,0.000000
 63,0.00000038,-0.00000087,0.00000003,0.00000203,0.00000041,0.00000099,
 0.00000076,-0.00000141,0.00000026,0.00000246,0.00000177,0.00000169,0.0
 0000212,-0.00000434,0.00000463,0.00000415,0.00001126,-0.00000908,0.000
 01722,-0.00000363,0.00002858,0.00014933,-0.00020017,0.00012571,0.00030
 622,0.00282079,0.00205425,0.00133606,0.03753396,0.06825738,0.00003210,
 -0.00000914,-0.00000830,-0.00002965,-0.00000876,0.00003191,0.00002650,
 0.00001190,-0.00003570,-0.00001777,-0.00002366,0.00004333,0.00001608,0
 .00002169,-0.00005693,0.00000971,-0.00003775,0.00007231,0.00003430,0.0
 0004196,-0.00010141,-0.00004024,-0.00034844,0.00033655,-0.00159231,-0.
 00066955,0.00012997,0.00125297,0.00228018,-0.00137294,0.10965148,0.075
 78932,-0.22497466,0.01249333,0.00779483,-0.01491684,0.00067494,-0.0036
 6294,-0.00088396,-0.00036139,0.00000590,0.00030810,-0.00000096,0.00000
 062,0.00000080,0.00000361,0.00000231,-0.00000481,0.00000048,0.00000031
 ,0.00000087,0.00000496,0.00000246,-0.00000559,0.00000066,0.00000085,0.
 00000206,0.00000799,0.00000409,-0.00000570,0.00000818,-0.00000096,0.00
 000304,-0.00009354,0.00014961,-0.00004795,0.00043668,-0.00030274,0.000
 43789,0.00070346,0.00133185,0.00157476,-0.12175601,-0.08831783,0.23780
 572,-0.00000073,-0.00000195,0.00000230,-0.00000362,0.00000229,-0.00000
 434,0.00000605,-0.00000764,0.00000770,-0.00001103,0.00001522,-0.000003
 67,0.00001924,-0.00002043,0.00001496,-0.00004326,-0.00000187,-0.000027
 27,0.00006339,-0.00004184,0.00004693,-0.00005997,0.00006416,0.00007479
 ,0.00016305,-0.00006656,-0.00005926,0.00033980,-0.00089638,-0.00252602
 ,0.01011523,0.00548138,-0.01166756,-0.12265204,-0.03814075,0.11073897,
 -0.01236623,-0.01008603,0.02507661,0.00123731,-0.00147593,0.00054992,0
 .00000022,0.00000016,-0.00000004,-0.00000011,0.00000018,0.00000036,0.0
 0000032,0.00000061,0.00000018,-0.00000014,0.00000041,0.00000048,-0.000
 00060,-0.00000218,-0.00000141,-0.00000147,0.00000184,0.00000042,0.0000
 0619,0.00000085,0.00000664,-0.00003336,0.00001121,0.00000719,-0.000098
 28,0.00006786,0.00017544,0.00004521,-0.00019740,0.00044034,-0.00004759
 ,0.00407893,-0.00052386,0.12712339,-0.00000182,-0.00000098,-0.00000020
 ,-0.00000060,-0.00000275,-0.00000299,-0.00000042,-0.00000150,0.0000018
 4,0.00000369,0.00001432,0.00000752,0.00000084,-0.00000782,0.00000037,-
 0.00003175,-0.00005483,-0.00003697,0.00001660,0.00001853,0.00001552,0.
 00005513,0.00015644,0.00006174,0.00022138,-0.00007444,-0.00017212,-0.0
 0299247,-0.00322474,-0.00230910,-0.01012152,-0.00226356,0.01736898,-0.
 03740849,-0.07388975,0.07688216,0.00557421,0.00544284,-0.00726643,-0.0
 0032179,-0.00042023,-0.00150676,0.00000028,0.00000045,-0.00000005,0.00
 000044,0.00000057,0.00000027,0.00000061,0.00000167,0.00000032,0.000001
 14,0.00000099,0.00000031,-0.00000221,-0.00000425,-0.00000479,0.0000041
 0,0.00000176,0.00000052,0.00000069,0.00001729,0.00000214,0.00004038,-0
 .00000931,-0.00000173,0.00006726,0.00032813,-0.00000608,0.00077664,0.0
 0013728,-0.00028770,0.00406220,0.00393002,0.00558035,0.03771906,0.0681
 0118,0.00000210,-0.00000012,-0.00000297,0.00000011,-0.00000478,0.00000
 237,-0.00000342,0.00000633,-0.00000809,0.00001407,0.00000035,0.0000114
 1,-0.00001779,0.00001361,-0.00001712,0.00001872,-0.00005557,-0.0000178
 0,-0.00004302,0.00005190,-0.00001778,0.00008870,0.00005612,0.00007723,
 -0.00050250,0.00000711,0.00020513,0.00070053,-0.00361387,-0.00080793,0
 .01235100,0.00765647,-0.01454755,0.10961180,0.07733798,-0.22635501,0.0
 0096981,0.00248178,-0.00144754,-0.00122673,-0.00078833,0.00044797,-0.0
 0000024,0.00000003,0.00000064,-0.00000004,0.00000043,0.00000029,0.0000
 0018,0.00000032,0.00000152,-0.00000064,0.00000076,0.00000087,-0.000001
 36,-0.00000481,0.,-0.00000306,0.00000193,0.00000269,0.00000688,0.00000
 204,0.00001153,-0.00003771,0.00001643,0.00000408,0.00017637,-0.0000064
 6,0.00025153,-0.00105906,0.00031863,0.00043320,-0.00049810,0.00556993,
 0.00093373,-0.12158845,-0.08971719,0.23886546,-0.00002003,0.00000575,0
 .00000282,0.00002067,0.00000282,-0.00001749,-0.00002100,-0.00000273,0.
 00001663,0.00002104,0.00000594,-0.00002248,-0.00002388,-0.00000430,0.0
 0002087,0.00002523,0.00000748,-0.00002993,-0.00003363,-0.00000995,0.00
 002951,0.00004957,0.00000953,-0.00003591,-0.00002363,0.00001544,-0.000
 02228,-0.00001949,0.00022074,-0.00045413,0.00120387,-0.00181855,0.0010
 3621,-0.01290326,-0.01002200,0.02533700,-0.12173043,-0.03917442,0.1101
 0995,0.01045701,0.00656569,-0.01336608,0.00000068,0.00000007,-0.000000
 15,-0.00000192,-0.00000097,0.00000304,-0.00000011,0.00000044,-0.000000
 04,-0.00000266,-0.00000087,0.00000361,-0.00000023,0.00000088,-0.000000
 20,-0.00000275,-0.00000112,0.00000430,-0.00000181,0.00000374,-0.000001
 99,0.00000345,-0.00000387,0.00000712,-0.00003365,0.00004072,-0.0000351
 8,0.00028671,-0.00000992,-0.00009798,0.00003465,0.00078910,-0.00109935
 ,-0.00418986,0.00279148,0.00057783,0.12629484,-0.00001029,0.00000175,0
 .00000173,0.00000911,0.00000231,-0.00000994,-0.00000797,-0.00000431,0.
 00001000,0.00000539,0.00000594,-0.00001311,-0.00000442,-0.00000787,0.0
 0001335,-0.00000102,0.00000849,-0.00001913,-0.00000244,-0.00002079,0.0
 0001686,-0.00001621,0.00003671,-0.00002264,-0.00002733,-0.00004992,0.0
 0006115,-0.00004188,-0.00006567,-0.00018560,-0.00015064,-0.00052460,-0
 .00160572,0.00554286,0.00539671,-0.00711494,-0.03845984,-0.07591792,0.
 07658682,-0.00992004,-0.00233533,0.01780761,0.00000054,0.00000029,0.00
 000015,-0.00000097,-0.00000025,0.00000185,0.00000018,0.00000057,0.0000
 0043,-0.00000133,0.00000003,0.00000231,0.00000032,0.00000093,0.0000008
 4,-0.00000178,0.00000022,0.00000289,0.00000176,0.00000203,0.00000231,-
 0.00000455,0.00000419,0.00000458,0.00001088,-0.00000536,0.00001768,-0.
 00000426,0.00001443,0.00014176,-0.00021484,0.00011954,0.00028833,0.002
 69634,0.00180268,0.00115237,0.03798071,0.07042332,0.00002750,-0.000008
 25,-0.00000571,-0.00002718,-0.00000602,0.00002573,0.00002470,0.0000067
 4,-0.00002679,-0.00002163,-0.00001345,0.00003378,0.00002105,0.00001328
 ,-0.00003453,-0.00001684,-0.00002442,0.00004374,0.00001795,0.00002153,
 -0.00005514,0.00000370,-0.00003866,0.00007265,0.00004356,0.00003453,-0
 .00010151,-0.00004988,-0.00034907,0.00036521,-0.00153127,-0.00056748,0
 .00019814,0.00137697,0.00257388,-0.00180318,0.10900992,0.07703159,-0.2
 2815400,0.01201150,0.00754561,-0.01387097,-0.00000088,0.00000045,0.000
 00047,0.00000304,0.00000185,-0.00000418,0.00000036,0.00000027,0.000000
 29,0.00000432,0.00000203,-0.00000481,0.00000066,0.00000050,0.00000044,
 0.00000531,0.00000248,-0.00000575,0.00000106,0.00000108,0.00000193,0.0
 0000817,0.00000416,-0.00000617,0.00001075,-0.00000089,0.00000521,-0.00
 010667,0.00014528,-0.00005243,0.00044608,-0.00033661,0.00046044,0.0007
 2429,0.00109315,0.00150800,-0.12008714,-0.09002157,0.24062990,0.000005
 57,-0.00000287,0.00000016,-0.00000771,0.00000091,0.00000387,0.00000802
 ,-0.00000277,-0.00000139,-0.00001222,0.00000113,0.00000200,0.00001321,
 -0.00000682,0.00000193,-0.00001795,0.00001396,0.00000474,0.00002527,-0
 .00001929,0.00000828,-0.00005096,-0.00000867,-0.00002071,0.00007049,-0
 .00003985,0.00004067,-0.00004671,0.00007885,0.00011031,0.00012392,-0.0
 0004341,-0.00005210,0.00040611,-0.00138970,-0.00271241,0.01082233,0.00
 550692,-0.01227981,-0.11724096,-0.03868088,0.11183156,-0.00000005,0.00
 000029,0.,0.00000068,0.00000054,-0.00000088,0.00000022,0.00000028,-0.0
 0000024,0.00000100,0.00000069,-0.00000096,0.00000050,0.00000095,-0.000
 00012,0.00000120,0.00000102,-0.00000109,-0.00000039,-0.00000216,-0.000
 00220,0.00000030,0.00000262,-0.00000156,0.00000507,0.00000144,0.000004
 75,-0.00003295,0.00001134,0.00000516,-0.00009698,0.00005549,0.00018571
 ,0.00009840,-0.00024541,0.00049642,0.00039086,0.00452727,-0.00037121,0
 .11354622,-0.00000221,-0.00000046,0.00000012,0.00000156,0.00000115,-0.
 00000156,-0.00000108,-0.00000199,0.00000211,-0.00000199,-0.00000219,-0
 .00000497,0.00000110,-0.00000326,0.00000351,0.00000234,0.00001889,0.00
 000669,0.00000360,-0.00001227,0.00000257,-0.00004038,-0.00005914,-0.00
 004650,0.00002273,0.00001273,0.00002362,0.00006164,0.00023941,0.000094
 15,0.00023651,-0.00007330,-0.00013772,-0.00348148,-0.00399819,-0.00305
 101,-0.01007323,-0.00227047,0.01702128,-0.03689429,-0.07527415,0.08766
 806,0.00000029,0.00000045,0.00000015,0.00000007,0.00000029,0.00000045,
 0.00000016,0.00000045,0.00000003,0.00000031,0.00000063,0.00000062,0.00
 000070,0.00000193,0.00000071,0.00000090,0.00000112,0.00000073,-0.00000
 261,-0.00000494,-0.00000502,0.00000362,0.00000204,0.00000119,0.0000006
 4,0.00001487,0.00000173,0.00003633,-0.00000977,-0.00000237,0.00006285,
 0.00031739,-0.00000650,0.00074830,0.00014618,-0.00024594,0.00468197,0.
 00507655,0.00618897,0.04025215,0.07075670,-0.00000085,0.00000053,-0.00
 000156,0.00000289,-0.00000116,0.00000076,-0.00000399,0.00000316,-0.000
 00344,0.00000681,-0.00000691,0.00000018,-0.00001025,0.00000844,-0.0000
 0715,0.00002263,-0.00000054,0.00001092,-0.00002697,0.00001683,-0.00001
 825,0.00002809,-0.00006623,-0.00002121,-0.00005567,0.00006258,-0.00002
 441,0.00013680,0.00008344,0.00011189,-0.00048299,0.00003651,0.00017732
 ,0.00050757,-0.00435308,-0.00100295,0.01170384,0.00732292,-0.01384458,
 0.10908136,0.08878022,-0.23780947,0.,0.00000015,0.00000043,-0.00000015
 ,0.00000015,0.00000047,-0.00000004,-0.00000005,0.00000064,-0.00000037,
 0.00000038,0.00000080,0.00000027,0.00000056,0.00000165,-0.00000091,0.0
 0000066,0.00000151,-0.00000150,-0.00000530,-0.00000016,-0.00000310,0.0
 0000181,0.00000342,0.00000598,0.00000123,0.00001063,-0.00003331,0.0000
 1318,0.00000382,0.00017438,-0.00000192,0.00023299,-0.00103327,0.000372
 63,0.00035858,-0.00060936,0.00628524,0.00169426,-0.11908668,-0.1004518
 7,0.25054037,-0.00002050,0.00000664,0.00000189,0.00002230,0.00000081,-
 0.00001734,-0.00002173,-0.00000022,0.00001389,0.00002590,0.00000592,-0
 .00001688,-0.00002656,0.00000132,0.00001184,0.00002603,-0.00001753,-0.
 00003202,-0.00004115,0.00001314,0.00001089,0.00008267,0.00007838,0.000
 02223,-0.00012543,0.00001811,0.00000428,-0.00005358,-0.00030364,-0.000
 40890,-0.00055641,0.00011855,0.00030441,0.00219234,0.00404045,-0.00032
 922,-0.00965314,0.00235077,0.00499260,-0.31316981,0.08335296,0.0471930
 8,0.00000072,-0.00000017,-0.00000005,-0.00000203,-0.00000111,0.0000032
 6,-0.00000008,0.00000027,0.00000055,-0.00000279,-0.00000109,0.00000380
 ,-0.00000061,-0.00000089,0.00000025,-0.00000303,-0.00000111,0.00000472
 ,0.00000204,0.00000568,0.00000452,-0.00000271,-0.00000247,0.00000585,-
 0.00000652,-0.00001942,-0.00001321,0.00001042,-0.00000402,0.00001524,0
 .00001057,0.00007629,-0.00003185,0.00029056,-0.00020996,-0.00003295,0.
 00022178,-0.00190444,-0.00153144,-0.00801321,0.00437970,-0.00032116,0.
 32881630,0.00001532,-0.00000527,-0.00000301,-0.00001690,-0.00000506,0.
 00001284,0.00001495,0.00000286,-0.00001364,-0.00001106,0.00000240,0.00
 002385,0.00001405,0.00000193,-0.00001832,-0.00003257,-0.00005316,-0.00
 000372,0.00002438,0.00001203,-0.00002009,0.00006567,0.00017081,0.00017
 682,0.00006664,-0.00004038,-0.00009288,-0.00035403,-0.00109978,-0.0003
 3625,0.00090710,0.00017371,-0.00048447,0.00293769,0.00558533,0.0075153
 3,0.01937168,-0.00117795,-0.00380953,0.08101984,-0.06310357,-0.0013623
 8,-0.00000044,0.00000032,0.00000012,0.00000189,0.00000124,-0.00000239,
 0.00000055,0.00000103,0.00000033,0.00000276,0.00000134,-0.00000283,-0.
 00000040,-0.00000123,-0.00000158,0.00000394,0.00000226,-0.00000315,0.0
 0000602,0.00001521,0.00000876,0.00000446,0.00000231,-0.00000545,-0.000
 02088,-0.00004790,-0.00002989,0.00000827,0.00002286,-0.00000193,-0.000
 00637,0.00009571,0.00008455,0.00004958,-0.00014718,-0.00023778,-0.0020
 7568,-0.00396591,-0.00329854,-0.01001357,0.00511903,0.00189632,-0.0919
 8501,0.05843784,-0.00001147,0.00000239,0.00000243,0.00000992,0.0000018
 2,-0.00001252,-0.00000946,-0.00000419,0.00001239,0.00000926,0.00001328
 ,-0.00001279,-0.00000776,-0.00001040,0.00001654,-0.00000887,-0.0000130
 8,-0.00004309,-0.00000641,-0.00001309,0.00003299,0.00004181,0.00016890
 ,0.00002620,-0.00007042,-0.00006267,0.00006655,-0.00033136,-0.00036761
 ,-0.00068922,-0.00090947,0.00000640,0.00078208,0.00136837,0.00682887,0
 .00029141,-0.02120887,0.00678563,0.00693721,0.05078456,-0.00281468,-0.
 05850590,0.00000036,-0.00000004,0.00000006,-0.00000136,-0.00000052,0.0
 0000211,0.00000012,0.00000051,0.00000062,-0.00000213,-0.00000043,0.000
 00260,-0.00000052,-0.00000127,-0.00000014,-0.00000305,0.,0.00000372,0.
 00000400,0.00000897,0.00000704,-0.00000483,-0.00000113,0.00000532,-0.0
 0001096,-0.00003080,-0.00002153,-0.00000367,0.00000572,0.00001843,0.00
 009540,0.00003310,0.00003773,-0.00043248,-0.00007623,0.00010495,-0.001
 26783,-0.00340512,-0.00091710,0.02183542,-0.00706320,-0.00041754,-0.04
 985713,0.00000738,0.05227008,-0.31315895,0.08336644,0.04719813,-0.0096
 5223,0.00235133,0.00499270,0.00219272,0.00404078,-0.00032883,-0.000556
 36,0.00011859,0.00030442,-0.00005362,-0.00030371,-0.00040893,-0.000125
 43,0.00001812,0.00000428,0.00008268,0.00007839,0.00002224,-0.00004115,
 0.00001315,0.00001089,0.00002603,-0.00001753,-0.00003202,-0.00002656,0
 .00000132,0.00001184,0.00002589,0.00000592,-0.00001688,-0.00002173,-0.
 00000022,0.00001389,0.00002230,0.00000081,-0.00001734,-0.00002050,0.00
 000664,0.00000189,-0.00801312,0.00438030,-0.00032089,0.00022151,-0.001
 90473,-0.00153164,0.00029055,-0.00020998,-0.00003297,0.00001057,0.0000
 7629,-0.00003184,0.00001042,-0.00000402,0.00001524,-0.00000653,-0.0000
 1942,-0.00001321,-0.00000270,-0.00000247,0.00000585,0.00000204,0.00000
 568,0.00000452,-0.00000303,-0.00000111,0.00000472,-0.00000061,-0.00000
 089,0.00000025,-0.00000279,-0.00000109,0.00000380,-0.00000008,0.000000
 27,0.00000055,-0.00000203,-0.00000111,0.00000326,0.00000072,-0.0000001
 7,-0.00000005,-0.00000233,0.00000210,-0.00000116,0.32880434,0.08103339
 ,-0.06311268,-0.00136649,0.01937217,-0.00117913,-0.00381023,0.00293798
 ,0.00558489,0.00751532,0.00090716,0.00017364,-0.00048451,-0.00035407,-
 0.00109974,-0.00033622,0.00006665,-0.00004038,-0.00009288,0.00006567,0
 .00017080,0.00017681,0.00002438,0.00001203,-0.00002009,-0.00003257,-0.
 00005316,-0.00000372,0.00001405,0.00000193,-0.00001832,-0.00001106,0.0
 0000240,0.00002385,0.00001495,0.00000286,-0.00001364,-0.00001690,-0.00
 000506,0.00001284,0.00001532,-0.00000527,-0.00000301,-0.01001295,0.005
 11938,0.00189656,-0.00207597,-0.00396566,-0.00329841,0.00004956,-0.000
 14717,-0.00023778,-0.00000637,0.00009571,0.00008455,0.00000826,0.00002
 286,-0.00000193,-0.00002088,-0.00004790,-0.00002989,0.00000446,0.00000
 231,-0.00000545,0.00000602,0.00001521,0.00000876,0.00000394,0.00000226
 ,-0.00000315,-0.00000040,-0.00000123,-0.00000158,0.00000276,0.00000134
 ,-0.00000283,0.00000055,0.00000103,0.00000033,0.00000189,0.00000124,-0
 .00000239,-0.00000044,0.00000032,0.00000012,0.00000210,-0.00000084,0.0
 0000152,-0.09199965,0.05844800,0.05078954,-0.00281903,-0.05850771,-0.0
 2120808,0.00678671,0.00693752,0.00136870,0.00682876,0.00029146,-0.0009
 0943,0.00000643,0.00078209,-0.00033138,-0.00036760,-0.00068921,-0.0000
 7042,-0.00006267,0.00006655,0.00004181,0.00016890,0.00002620,-0.000006
 41,-0.00001309,0.00003299,-0.00000887,-0.00001308,-0.00004309,-0.00000
 775,-0.00001039,0.00001654,0.00000926,0.00001328,-0.00001279,-0.000009
 46,-0.00000419,0.00001239,0.00000992,0.00000182,-0.00001252,-0.0000114
 7,0.00000239,0.00000243,0.02183510,-0.00706446,-0.00041795,-0.00126805
 ,-0.00340504,-0.00091708,-0.00043249,-0.00007620,0.00010496,0.00009540
 ,0.00003309,0.00003773,-0.00000368,0.00000572,0.00001843,-0.00001096,-
 0.00003080,-0.00002153,-0.00000483,-0.00000113,0.00000532,0.00000400,0
 .00000897,0.00000704,-0.00000305,0.,0.00000372,-0.00000052,-0.00000127
 ,-0.00000014,-0.00000213,-0.00000043,0.00000260,0.00000012,0.00000051,
 0.00000062,-0.00000136,-0.00000052,0.00000211,0.00000036,-0.00000004,0
 .00000006,-0.00000116,0.00000152,-0.00000062,-0.04986271,0.00001185,0.
 05227188\\-0.00001074,-0.00001996,0.00003735,-0.00000956,0.00003897,-0
 .00005409,-0.00001751,-0.00005127,0.00008989,0.00001483,0.00005124,-0.
 00008801,0.00000207,-0.00006494,0.00009865,-0.00000440,0.00006600,-0.0
 0009870,0.00001147,-0.00007284,0.00010500,-0.00001145,0.00007280,-0.00
 010494,0.00000458,-0.00006604,0.00009895,-0.00000218,0.00006501,-0.000
 09875,-0.00001465,-0.00005135,0.00008824,0.00001738,0.00005146,-0.0000
 8999,0.00000963,-0.00003913,0.00005420,0.00001070,0.00001997,-0.000037
 48,0.00000410,0.00000337,-0.00000763,-0.00000597,-0.00000652,0.0000138
 6,0.00001586,0.00000741,-0.00002139,-0.00001365,-0.00000650,0.00001855
 ,0.00001067,0.00000903,-0.00002081,-0.00001060,-0.00000883,0.00002016,
 0.00001010,0.00000992,-0.00002167,-0.00001017,-0.00000997,0.00002155,0
 .00001055,0.00000888,-0.00002022,-0.00001075,-0.00000920,0.00002064,0.
 00001362,0.00000659,-0.00001857,-0.00001589,-0.00000747,0.00002134,0.0
 0000598,0.00000664,-0.00001384,-0.00000405,-0.00000330,0.00000770,-0.0
 0000283,-0.00000787,0.00001390,0.00000285,0.00000790,-0.00001389\\\@


 HE WHO LOVES TO READ, AND KNOWS HOW TO REFLECT,
 HAS LAID BY A PERPETUAL FEAST FOR HIS OLD AGE.
 -- UNCLE ESEK, "SCRIBNER'S MONTHLY", SEPT. 1880
 Job cpu time:       0 days  0 hours 23 minutes 48.2 seconds.
 Elapsed time:       0 days  0 hours 23 minutes 48.2 seconds.
 File lengths (MBytes):  RWF=    263 Int=      0 D2E=      0 Chk=      8 Scr=      1
 Normal termination of Gaussian 16 at Fri Oct 27 16:51:13 2023.
