 Entering Gaussian System, Link 0=g16
 Input=./com/8.com
 Output=./log/8.log
 Initial command:
 /home/shohei/gaussian/g16/l1.exe "/home/shohei/gaussian/scratch/Gau-21647.inp" -scrdir="/home/shohei/gaussian/scratch/"
 Entering Link 1 = /home/shohei/gaussian/g16/l1.exe PID=     21649.
  
 Copyright (c) 1988-2017, Gaussian, Inc.  All Rights Reserved.
  
 This is part of the Gaussian(R) 16 program.  It is based on
 the Gaussian(R) 09 system (copyright 2009, Gaussian, Inc.),
 the Gaussian(R) 03 system (copyright 2003, Gaussian, Inc.),
 the Gaussian(R) 98 system (copyright 1998, Gaussian, Inc.),
 the Gaussian(R) 94 system (copyright 1995, Gaussian, Inc.),
 the Gaussian 92(TM) system (copyright 1992, Gaussian, Inc.),
 the Gaussian 90(TM) system (copyright 1990, Gaussian, Inc.),
 the Gaussian 88(TM) system (copyright 1988, Gaussian, Inc.),
 the Gaussian 86(TM) system (copyright 1986, Carnegie Mellon
 University), and the Gaussian 82(TM) system (copyright 1983,
 Carnegie Mellon University). Gaussian is a federally registered
 trademark of Gaussian, Inc.
  
 This software contains proprietary and confidential information,
 including trade secrets, belonging to Gaussian, Inc.
  
 This software is provided under written license and may be
 used, copied, transmitted, or stored only in accord with that
 written license.
  
 The following legend is applicable only to US Government
 contracts under FAR:
  
                    RESTRICTED RIGHTS LEGEND
  
 Use, reproduction and disclosure by the US Government is
 subject to restrictions as set forth in subparagraphs (a)
 and (c) of the Commercial Computer Software - Restricted
 Rights clause in FAR 52.227-19.
  
 Gaussian, Inc.
 340 Quinnipiac St., Bldg. 40, Wallingford CT 06492
  
  
 ---------------------------------------------------------------
 Warning -- This program may not be used in any manner that
 competes with the business of Gaussian, Inc. or will provide
 assistance to any competitor of Gaussian, Inc.  The licensee
 of this program is prohibited from giving any competitor of
 Gaussian, Inc. access to this program.  By using this program,
 the user acknowledges that Gaussian, Inc. is engaged in the
 business of creating and licensing software in the field of
 computational chemistry and represents and warrants to the
 licensee that it is not a competitor of Gaussian, Inc. and that
 it will not use this program in any manner prohibited above.
 ---------------------------------------------------------------
  

 Cite this work as:
 Gaussian 16, Revision B.01,
 M. J. Frisch, G. W. Trucks, H. B. Schlegel, G. E. Scuseria, 
 M. A. Robb, J. R. Cheeseman, G. Scalmani, V. Barone, 
 G. A. Petersson, H. Nakatsuji, X. Li, M. Caricato, A. V. Marenich, 
 J. Bloino, B. G. Janesko, R. Gomperts, B. Mennucci, H. P. Hratchian, 
 J. V. Ortiz, A. F. Izmaylov, J. L. Sonnenberg, D. Williams-Young, 
 F. Ding, F. Lipparini, F. Egidi, J. Goings, B. Peng, A. Petrone, 
 T. Henderson, D. Ranasinghe, V. G. Zakrzewski, J. Gao, N. Rega, 
 G. Zheng, W. Liang, M. Hada, M. Ehara, K. Toyota, R. Fukuda, 
 J. Hasegawa, M. Ishida, T. Nakajima, Y. Honda, O. Kitao, H. Nakai, 
 T. Vreven, K. Throssell, J. A. Montgomery, Jr., J. E. Peralta, 
 F. Ogliaro, M. J. Bearpark, J. J. Heyd, E. N. Brothers, K. N. Kudin, 
 V. N. Staroverov, T. A. Keith, R. Kobayashi, J. Normand, 
 K. Raghavachari, A. P. Rendell, J. C. Burant, S. S. Iyengar, 
 J. Tomasi, M. Cossi, J. M. Millam, M. Klene, C. Adamo, R. Cammi, 
 J. W. Ochterski, R. L. Martin, K. Morokuma, O. Farkas, 
 J. B. Foresman, and D. J. Fox, Gaussian, Inc., Wallingford CT, 2016.
 
 ******************************************
 Gaussian 16:  EM64L-G16RevB.01 20-Dec-2017
                27-Oct-2023 
 ******************************************
 %chk=./chk/../chk/../chk/../chk/../chk/8.chk
 ---------------------------
 # B3LYP/6-31G(d,p) OPT FREQ
 ---------------------------
 1/18=20,19=15,26=3,38=1/1,3;
 2/9=110,12=2,17=6,18=5,40=1/2;
 3/5=1,6=6,7=101,11=2,25=1,30=1,71=1,74=-5/1,2,3;
 4//1;
 5/5=2,38=5/2;
 6/7=2,8=2,9=2,10=2,28=1/1;
 7//1,2,3,16;
 1/18=20,19=15,26=3/3(2);
 2/9=110/2;
 99//99;
 2/9=110/2;
 3/5=1,6=6,7=101,11=2,25=1,30=1,71=1,74=-5/1,2,3;
 4/5=5,16=3,69=1/1;
 5/5=2,38=5/2;
 7//1,2,3,16;
 1/18=20,19=15,26=3/3(-5);
 2/9=110/2;
 6/7=2,8=2,9=2,10=2,19=2,28=1/1;
 99/9=1/99;
 -----
 8poly
 -----
 Symbolic Z-matrix:
 Charge =  0 Multiplicity = 1
 C                     10.86854  -3.5371   -1.30805 
 C                     11.73522  -3.25646  -2.29021 
 C                     13.12809  -3.76848  -2.37304 
 C                     13.70231  -4.58266  -1.4703 
 C                     15.09847  -5.03657  -1.64657 
 C                     15.67797  -5.84873  -0.75236 
 C                     17.07304  -6.30269  -0.93011 
 C                     17.65163  -7.11628  -0.03692 
 C                     19.04617  -7.57156  -0.21525 
 C                     19.62381  -8.38702   0.67685 
 C                     21.01784  -8.84365   0.49793 
 C                     21.59462  -9.66082   1.38903 
 C                     22.98826  -10.1185   1.20966 
 C                     23.56447  -10.93678   2.10005 
 C                     24.95745  -11.39456   1.91999 
 C                     25.5354  -12.21049   2.80455 
 H                     11.11576  -4.17659  -0.47064 
 H                     11.4     -2.60469  -3.09139 
 H                     13.7082  -3.44941  -3.23483 
 H                     13.15811  -4.92354  -0.5975 
 H                     15.66027  -4.70452  -2.51676 
 H                     15.11737  -6.18189   0.11814 
 H                     17.63404  -5.96961  -1.8004 
 H                     17.09044  -7.44971   0.83311 
 H                     19.60754  -7.23796  -1.08511 
 H                     19.06223  -8.72097   1.54643 
 H                     21.57958  -8.50954  -0.37149 
 H                     21.03271  -9.99522   2.25823 
 H                     23.5504  -9.78407   0.34061 
 H                     23.00294  -11.27186   2.96925 
 H                     25.5284  -11.0664   1.0555 
 H                     24.99803  -12.5605   3.68106 
 H                     26.55983  -12.5353   2.65376 
 H                     9.87053  -3.11182  -1.33963 
 

 GradGradGradGradGradGradGradGradGradGradGradGradGradGradGradGradGradGrad
 Berny optimization.
 Initialization pass.
                           ----------------------------
                           !    Initial Parameters    !
                           ! (Angstroms and Degrees)  !
 --------------------------                            --------------------------
 ! Name  Definition              Value          Derivative Info.                !
 --------------------------------------------------------------------------------
 ! R1    R(1,2)                  1.3396         estimate D2E/DX2                !
 ! R2    R(1,17)                 1.0823         estimate D2E/DX2                !
 ! R3    R(1,34)                 1.0853         estimate D2E/DX2                !
 ! R4    R(2,3)                  1.4863         estimate D2E/DX2                !
 ! R5    R(2,18)                 1.0858         estimate D2E/DX2                !
 ! R6    R(3,4)                  1.3445         estimate D2E/DX2                !
 ! R7    R(3,19)                 1.0867         estimate D2E/DX2                !
 ! R8    R(4,5)                  1.4786         estimate D2E/DX2                !
 ! R9    R(4,20)                 1.0836         estimate D2E/DX2                !
 ! R10   R(5,6)                  1.3398         estimate D2E/DX2                !
 ! R11   R(5,21)                 1.0877         estimate D2E/DX2                !
 ! R12   R(6,7)                  1.4778         estimate D2E/DX2                !
 ! R13   R(6,22)                 1.0877         estimate D2E/DX2                !
 ! R14   R(7,8)                  1.3396         estimate D2E/DX2                !
 ! R15   R(7,23)                 1.0877         estimate D2E/DX2                !
 ! R16   R(8,9)                  1.4778         estimate D2E/DX2                !
 ! R17   R(8,24)                 1.0877         estimate D2E/DX2                !
 ! R18   R(9,10)                 1.3396         estimate D2E/DX2                !
 ! R19   R(9,25)                 1.0877         estimate D2E/DX2                !
 ! R20   R(10,11)                1.4778         estimate D2E/DX2                !
 ! R21   R(10,26)                1.0877         estimate D2E/DX2                !
 ! R22   R(11,12)                1.3396         estimate D2E/DX2                !
 ! R23   R(11,27)                1.0877         estimate D2E/DX2                !
 ! R24   R(12,13)                1.4778         estimate D2E/DX2                !
 ! R25   R(12,28)                1.0877         estimate D2E/DX2                !
 ! R26   R(13,14)                1.3395         estimate D2E/DX2                !
 ! R27   R(13,29)                1.0877         estimate D2E/DX2                !
 ! R28   R(14,15)                1.4773         estimate D2E/DX2                !
 ! R29   R(14,30)                1.0877         estimate D2E/DX2                !
 ! R30   R(15,16)                1.335          estimate D2E/DX2                !
 ! R31   R(15,31)                1.0867         estimate D2E/DX2                !
 ! R32   R(16,32)                1.0861         estimate D2E/DX2                !
 ! R33   R(16,33)                1.0852         estimate D2E/DX2                !
 ! A1    A(2,1,17)             122.9075         estimate D2E/DX2                !
 ! A2    A(2,1,34)             119.44           estimate D2E/DX2                !
 ! A3    A(17,1,34)            117.6526         estimate D2E/DX2                !
 ! A4    A(1,2,3)              125.0989         estimate D2E/DX2                !
 ! A5    A(1,2,18)             117.8379         estimate D2E/DX2                !
 ! A6    A(3,2,18)             117.0633         estimate D2E/DX2                !
 ! A7    A(2,3,4)              124.8516         estimate D2E/DX2                !
 ! A8    A(2,3,19)             116.3145         estimate D2E/DX2                !
 ! A9    A(4,3,19)             118.8338         estimate D2E/DX2                !
 ! A10   A(3,4,5)              120.6064         estimate D2E/DX2                !
 ! A11   A(3,4,20)             121.1212         estimate D2E/DX2                !
 ! A12   A(5,4,20)             118.2724         estimate D2E/DX2                !
 ! A13   A(4,5,6)              120.9923         estimate D2E/DX2                !
 ! A14   A(4,5,21)             119.2975         estimate D2E/DX2                !
 ! A15   A(6,5,21)             119.7102         estimate D2E/DX2                !
 ! A16   A(5,6,7)              120.9471         estimate D2E/DX2                !
 ! A17   A(5,6,22)             119.7959         estimate D2E/DX2                !
 ! A18   A(7,6,22)             119.257          estimate D2E/DX2                !
 ! A19   A(6,7,8)              120.9378         estimate D2E/DX2                !
 ! A20   A(6,7,23)             119.2795         estimate D2E/DX2                !
 ! A21   A(8,7,23)             119.7827         estimate D2E/DX2                !
 ! A22   A(7,8,9)              120.9469         estimate D2E/DX2                !
 ! A23   A(7,8,24)             119.7803         estimate D2E/DX2                !
 ! A24   A(9,8,24)             119.2727         estimate D2E/DX2                !
 ! A25   A(8,9,10)             120.9374         estimate D2E/DX2                !
 ! A26   A(8,9,25)             119.2783         estimate D2E/DX2                !
 ! A27   A(10,9,25)            119.7842         estimate D2E/DX2                !
 ! A28   A(9,10,11)            120.9467         estimate D2E/DX2                !
 ! A29   A(9,10,26)            119.7802         estimate D2E/DX2                !
 ! A30   A(11,10,26)           119.2731         estimate D2E/DX2                !
 ! A31   A(10,11,12)           120.9385         estimate D2E/DX2                !
 ! A32   A(10,11,27)           119.2776         estimate D2E/DX2                !
 ! A33   A(12,11,27)           119.7839         estimate D2E/DX2                !
 ! A34   A(11,12,13)           120.946          estimate D2E/DX2                !
 ! A35   A(11,12,28)           119.781          estimate D2E/DX2                !
 ! A36   A(13,12,28)           119.273          estimate D2E/DX2                !
 ! A37   A(12,13,14)           120.9416         estimate D2E/DX2                !
 ! A38   A(12,13,29)           119.2844         estimate D2E/DX2                !
 ! A39   A(14,13,29)           119.774          estimate D2E/DX2                !
 ! A40   A(13,14,15)           120.9228         estimate D2E/DX2                !
 ! A41   A(13,14,30)           119.8205         estimate D2E/DX2                !
 ! A42   A(15,14,30)           119.2567         estimate D2E/DX2                !
 ! A43   A(14,15,16)           121.1211         estimate D2E/DX2                !
 ! A44   A(14,15,31)           119.9189         estimate D2E/DX2                !
 ! A45   A(16,15,31)           118.9599         estimate D2E/DX2                !
 ! A46   A(15,16,32)           121.1655         estimate D2E/DX2                !
 ! A47   A(15,16,33)           119.9692         estimate D2E/DX2                !
 ! A48   A(32,16,33)           118.8653         estimate D2E/DX2                !
 ! D1    D(17,1,2,3)             0.0028         estimate D2E/DX2                !
 ! D2    D(17,1,2,18)          179.9954         estimate D2E/DX2                !
 ! D3    D(34,1,2,3)          -179.9943         estimate D2E/DX2                !
 ! D4    D(34,1,2,18)           -0.0017         estimate D2E/DX2                !
 ! D5    D(1,2,3,4)             -0.0062         estimate D2E/DX2                !
 ! D6    D(1,2,3,19)           179.9821         estimate D2E/DX2                !
 ! D7    D(18,2,3,4)          -179.9989         estimate D2E/DX2                !
 ! D8    D(18,2,3,19)           -0.0105         estimate D2E/DX2                !
 ! D9    D(2,3,4,5)            179.9744         estimate D2E/DX2                !
 ! D10   D(2,3,4,20)            -0.0045         estimate D2E/DX2                !
 ! D11   D(19,3,4,5)            -0.0137         estimate D2E/DX2                !
 ! D12   D(19,3,4,20)         -179.9925         estimate D2E/DX2                !
 ! D13   D(3,4,5,6)           -179.9473         estimate D2E/DX2                !
 ! D14   D(3,4,5,21)             0.0206         estimate D2E/DX2                !
 ! D15   D(20,4,5,6)             0.0321         estimate D2E/DX2                !
 ! D16   D(20,4,5,21)          180.0            estimate D2E/DX2                !
 ! D17   D(4,5,6,7)            179.9482         estimate D2E/DX2                !
 ! D18   D(4,5,6,22)            -0.0118         estimate D2E/DX2                !
 ! D19   D(21,5,6,7)            -0.0195         estimate D2E/DX2                !
 ! D20   D(21,5,6,22)         -179.9795         estimate D2E/DX2                !
 ! D21   D(5,6,7,8)           -179.9028         estimate D2E/DX2                !
 ! D22   D(5,6,7,23)             0.0502         estimate D2E/DX2                !
 ! D23   D(22,6,7,8)             0.0574         estimate D2E/DX2                !
 ! D24   D(22,6,7,23)         -179.9895         estimate D2E/DX2                !
 ! D25   D(6,7,8,9)            179.9312         estimate D2E/DX2                !
 ! D26   D(6,7,8,24)            -0.0184         estimate D2E/DX2                !
 ! D27   D(23,7,8,9)            -0.0216         estimate D2E/DX2                !
 ! D28   D(23,7,8,24)         -179.9712         estimate D2E/DX2                !
 ! D29   D(7,8,9,10)          -179.8824         estimate D2E/DX2                !
 ! D30   D(7,8,9,25)             0.0665         estimate D2E/DX2                !
 ! D31   D(24,8,9,10)            0.0675         estimate D2E/DX2                !
 ! D32   D(24,8,9,25)         -179.9836         estimate D2E/DX2                !
 ! D33   D(8,9,10,11)          179.9303         estimate D2E/DX2                !
 ! D34   D(8,9,10,26)           -0.0213         estimate D2E/DX2                !
 ! D35   D(25,9,10,11)          -0.0184         estimate D2E/DX2                !
 ! D36   D(25,9,10,26)        -179.97           estimate D2E/DX2                !
 ! D37   D(9,10,11,12)        -179.893          estimate D2E/DX2                !
 ! D38   D(9,10,11,27)           0.0642         estimate D2E/DX2                !
 ! D39   D(26,10,11,12)          0.0588         estimate D2E/DX2                !
 ! D40   D(26,10,11,27)       -179.984          estimate D2E/DX2                !
 ! D41   D(10,11,12,13)        179.9458         estimate D2E/DX2                !
 ! D42   D(10,11,12,28)         -0.0189         estimate D2E/DX2                !
 ! D43   D(27,11,12,13)         -0.0112         estimate D2E/DX2                !
 ! D44   D(27,11,12,28)       -179.9759         estimate D2E/DX2                !
 ! D45   D(11,12,13,14)       -179.9284         estimate D2E/DX2                !
 ! D46   D(11,12,13,29)          0.0456         estimate D2E/DX2                !
 ! D47   D(28,12,13,14)          0.0365         estimate D2E/DX2                !
 ! D48   D(28,12,13,29)       -179.9895         estimate D2E/DX2                !
 ! D49   D(12,13,14,15)        179.9709         estimate D2E/DX2                !
 ! D50   D(12,13,14,30)         -0.012          estimate D2E/DX2                !
 ! D51   D(29,13,14,15)         -0.003          estimate D2E/DX2                !
 ! D52   D(29,13,14,30)       -179.9859         estimate D2E/DX2                !
 ! D53   D(13,14,15,16)       -179.9712         estimate D2E/DX2                !
 ! D54   D(13,14,15,31)          0.0199         estimate D2E/DX2                !
 ! D55   D(30,14,15,16)          0.0118         estimate D2E/DX2                !
 ! D56   D(30,14,15,31)       -179.9971         estimate D2E/DX2                !
 ! D57   D(14,15,16,32)         -0.0029         estimate D2E/DX2                !
 ! D58   D(14,15,16,33)        179.9931         estimate D2E/DX2                !
 ! D59   D(31,15,16,32)       -179.994          estimate D2E/DX2                !
 ! D60   D(31,15,16,33)          0.002          estimate D2E/DX2                !
 --------------------------------------------------------------------------------
 Trust Radius=3.00D-01 FncErr=1.00D-07 GrdErr=1.00D-06 EigMax=2.50D+02 EigMin=1.00D-04
 Number of steps in this run=    151 maximum allowed number of steps=    204.
 GradGradGradGradGradGradGradGradGradGradGradGradGradGradGradGradGradGrad

                          Input orientation:                          
 ---------------------------------------------------------------------
 Center     Atomic      Atomic             Coordinates (Angstroms)
 Number     Number       Type             X           Y           Z
 ---------------------------------------------------------------------
      1          6           0       10.868536   -3.537100   -1.308053
      2          6           0       11.735221   -3.256465   -2.290215
      3          6           0       13.128089   -3.768476   -2.373039
      4          6           0       13.702311   -4.582659   -1.470302
      5          6           0       15.098474   -5.036569   -1.646572
      6          6           0       15.677969   -5.848734   -0.752363
      7          6           0       17.073040   -6.302687   -0.930111
      8          6           0       17.651632   -7.116278   -0.036921
      9          6           0       19.046175   -7.571556   -0.215248
     10          6           0       19.623815   -8.387020    0.676850
     11          6           0       21.017842   -8.843647    0.497932
     12          6           0       21.594624   -9.660818    1.389033
     13          6           0       22.988258  -10.118499    1.209660
     14          6           0       23.564465  -10.936780    2.100045
     15          6           0       24.957453  -11.394561    1.919989
     16          6           0       25.535401  -12.210492    2.804551
     17          1           0       11.115764   -4.176593   -0.470644
     18          1           0       11.399996   -2.604688   -3.091389
     19          1           0       13.708197   -3.449413   -3.234829
     20          1           0       13.158110   -4.923541   -0.597503
     21          1           0       15.660268   -4.704519   -2.516759
     22          1           0       15.117370   -6.181895    0.118136
     23          1           0       17.634039   -5.969607   -1.800398
     24          1           0       17.090443   -7.449712    0.833112
     25          1           0       19.607536   -7.237963   -1.085107
     26          1           0       19.062231   -8.720967    1.546432
     27          1           0       21.579579   -8.509537   -0.371485
     28          1           0       21.032713   -9.995215    2.258230
     29          1           0       23.550403   -9.784075    0.340610
     30          1           0       23.002939  -11.271857    2.969255
     31          1           0       25.528401  -11.066396    1.055502
     32          1           0       24.998033  -12.560498    3.681058
     33          1           0       26.559828  -12.535305    2.653758
     34          1           0        9.870531   -3.111816   -1.339627
 ---------------------------------------------------------------------
                    Distance matrix (angstroms):
                    1          2          3          4          5
     1  C    0.000000
     2  C    1.339604   0.000000
     3  C    2.508648   1.486304   0.000000
     4  C    3.024864   2.510078   1.344455   0.000000
     5  C    4.500598   3.859342   2.453208   1.478640   0.000000
     6  C    5.364987   4.962873   3.668235   2.453896   1.339790
     7  C    6.803469   6.294575   4.905803   3.822580   2.452607
     8  C    7.774104   7.414811   6.093248   4.906215   3.665349
     9  C    9.183945   8.739311   7.358208   6.250244   4.905017
    10  C   10.203748   9.866914   8.533887   7.358507   6.091184
    11  C   11.594371  11.187378   9.810608   8.691775   7.357422
    12  C   12.642119  12.319109  10.979758   9.810815   8.532206
    13  C   14.019321  13.636990  12.263012  11.138067   9.809830
    14  C   15.084993  14.771346  13.427993  12.263128  10.978280
    15  C   16.451673  16.086698  14.714656  13.585812  12.261480
    16  C   17.528781  17.221388  15.875026  14.713267  13.424124
    17  H    1.082278   2.131009   2.799129   2.802576   4.240796
    18  H    2.081377   1.085849   2.203800   3.441067   4.656209
    19  H    3.432759   2.195942   1.086742   2.097102   2.640927
    20  H    2.769341   2.769302   2.118398   1.083575   2.208695
    21  H    5.077847   4.189770   2.703471   2.223402   1.087702
    22  H    5.203994   5.079097   3.998473   2.661406   2.103883
    23  H    7.206353   6.511307   5.047423   4.182233   2.706162
    24  H    7.655406   7.484444   6.287380   5.000515   3.992497
    25  H    9.492956   8.903817   7.461859   6.486193   5.049061
    26  H   10.107285   9.912907   8.666226   7.413166   6.283425
    27  H   11.846043  11.322000   9.895027   8.870125   7.462712
    28  H   12.559304  12.350808  11.077184   9.845431   8.663189
    29  H   14.232798  13.752435  12.335961  11.283574   9.895595
    30  H   15.012181  14.794256  13.503833  12.286445  11.075434
    31  H   16.648974  16.200021  14.791290  13.721332  12.346797
    32  H   17.491588  17.266249  15.963938  14.757228  13.527543
    33  H   18.517027  18.174398  16.808855  15.670616  14.355714
    34  H    1.085300   2.098001   3.480062   4.106457   5.579451
                    6          7          8          9         10
     6  C    0.000000
     7  C    1.477800   0.000000
     8  C    2.452320   1.339585   0.000000
     9  C    3.821181   2.452411   1.477778   0.000000
    10  C    4.904615   3.665136   2.452296   1.339585   0.000000
    11  C    6.248759   4.904819   3.821156   2.452409   1.477779
    12  C    7.356927   6.090993   4.904611   3.665150   2.452316
    13  C    8.690268   7.357231   6.248749   4.904824   3.821176
    14  C    9.809244   8.532014   7.356932   6.090998   4.904639
    15  C   11.135820   9.808884   8.689546   7.356481   6.248071
    16  C   12.259387  10.975491   9.807078   8.529300   7.354787
    17  H    4.867149   6.341966   7.179655   8.630320   9.561975
    18  H    5.856272   7.108428   8.292598   9.560649  10.736209
    19  H    3.974843   4.977456   6.262843   7.389448   8.641512
    20  H    2.688801   4.164054   5.031311   6.467411   7.444797
    21  H    2.103006   2.658481   3.991455   4.998122   6.282488
    22  H    1.087674   2.222174   2.705476   4.180647   5.048047
    23  H    2.222431   1.087686   2.103572   2.659524   3.992474
    24  H    2.659313   2.103550   1.087690   2.222340   2.705723
    25  H    4.181169   2.706000   2.222400   1.087688   2.103590
    26  H    4.998741   3.992271   2.659290   2.103549   1.087690
    27  H    6.484901   5.048875   4.181132   2.705985   2.222393
    28  H    7.411495   6.283255   4.998770   3.992311   2.659332
    29  H    8.868862   7.462642   6.484995   5.048989   4.181258
    30  H    9.844587   8.663799   7.412315   6.284049   4.999589
    31  H   11.292626   9.905994   8.879206   7.473150   6.495119
    32  H   12.311239  11.100838   9.870790   8.688807   7.438105
    33  H   13.218425  11.903310  10.768545   9.451190   8.320139
    34  H    6.446854   7.888314   8.847502  10.263818  11.270337
                   11         12         13         14         15
    11  C    0.000000
    12  C    1.339592   0.000000
    13  C    2.452416   1.477789   0.000000
    14  C    3.665141   2.452324   1.339546   0.000000
    15  C    4.904074   3.820523   2.451659   1.477294   0.000000
    16  C    6.088060   4.902474   3.661700   2.450155   1.334997
    17  H   10.989572  11.972537  13.382294  14.397178  15.792611
    18  H   12.012943  13.183079  14.465275  15.631668  16.916868
    19  H    9.821516  11.052483  12.261718  13.478411  14.705213
    20  H    8.851135   9.877392  11.264335  12.317793  13.690740
    21  H    7.411096   8.662372   9.843618  11.073947  12.283283
    22  H    6.484191   7.461428   8.867872   9.893953  11.280327
    23  H    4.999255   6.283609   7.412248   8.663499   9.843973
    24  H    4.180893   5.048335   6.484477   7.461751   8.867524
    25  H    2.659548   3.992507   4.999272   6.283608   7.411445
    26  H    2.222344   2.705754   4.180932   5.048408   6.483925
    27  H    1.087688   2.103592   2.659541   3.992461   4.998425
    28  H    2.103564   1.087690   2.222354   2.705797   4.180450
    29  H    2.706108   2.222488   1.087702   2.103459   2.658551
    30  H    3.993025   2.660057   2.103954   1.087710   2.221742
    31  H    5.059313   4.190644   2.715622   2.228209   1.086744
    32  H    6.307868   5.024413   4.013772   2.681638   2.112444
    33  H    6.999253   5.874986   4.547800   3.440070   2.099362
    34  H   12.668585  13.703626  15.088646  16.142653  17.516968
                   16         17         18         19         20
    16  C    0.000000
    17  H   16.828439   0.000000
    18  H   18.078806   3.069198   0.000000
    19  H   15.909537   3.858785   2.462098   0.000000
    20  H   14.760452   2.178349   3.832429   3.071016   0.000000
    21  H   13.497193   5.011767   4.784287   2.429299   3.161061
    22  H   12.332728   4.514505   6.075881   4.549132   2.436040
    23  H   11.071843   6.889924   7.200877   4.880697   4.751331
    24  H    9.892872   6.936129   8.441395   6.632505   4.887887
    25  H    8.659969   9.047638   9.636188   7.333254   6.869454
    26  H    7.460668   9.373702  10.845649   8.905921   7.339997
    27  H    6.279554  11.325885  12.078453   9.785818   9.155959
    28  H    5.047783  11.817318  13.267537  11.254766   9.792163
    29  H    3.987320  13.664635  14.524276  12.238493  11.511064
    30  H    2.705831  14.264664  15.699666  13.640877  12.245143
    31  H    2.090019  16.047512  16.982610  14.701789  13.910111
    32  H    1.086063  16.740487  18.162897  16.071769  14.724571
    33  H    1.085216  17.836734  19.011690  16.804562  15.751689
    34  H   18.583548   1.854585   2.380149   4.293418   3.826392
                   21         22         23         24         25
    21  H    0.000000
    22  H    3.069210   0.000000
    23  H    2.451407   3.171665   0.000000
    24  H    4.561044   2.451850   3.069459   0.000000
    25  H    4.903967   4.767039   2.452562   3.171776   0.000000
    26  H    6.649416   4.903962   4.561906   2.452115   3.069472
    27  H    7.356535   6.886058   4.905132   4.767245   2.452572
    28  H    8.924974   7.356133   6.650486   4.904288   4.561959
    29  H    9.809214   9.172853   7.357815   6.886428   4.905258
    30  H   11.275687   9.809118   8.926843   7.357276   6.651234
    31  H   12.272514  11.538049   9.821119   9.183083   7.368565
    32  H   13.686607  12.288552  11.301089   9.836713   8.950037
    33  H   14.382485  13.331356  11.942262  10.901710   9.506593
    34  H    6.119100   6.251382   8.285610   8.698578  10.578239
                   26         27         28         29         30
    26  H    0.000000
    27  H    3.171774   0.000000
    28  H    2.452175   3.069480   0.000000
    29  H    4.767378   2.452687   3.171847   0.000000
    30  H    4.905165   4.562555   2.452991   3.069688   0.000000
    31  H    6.895898   4.915996   4.775479   2.463310   3.175315
    32  H    7.384604   6.672273   4.932432   4.578510   2.479447
    33  H    8.484651   7.082499   6.095696   4.687917   3.787782
    34  H   11.148061  12.929598  13.598532  15.312777  16.050323
                   31         32         33         34
    31  H    0.000000
    32  H    3.067113   0.000000
    33  H    2.403322   1.869541   0.000000
    34  H   17.725148  18.529064  19.577587   0.000000
 Stoichiometry    C16H18
 Framework group  C1[X(C16H18)]
 Deg. of freedom    96
 Full point group                 C1      NOp   1
 Largest Abelian subgroup         C1      NOp   1
 Largest concise Abelian subgroup C1      NOp   1
                         Standard orientation:                         
 ---------------------------------------------------------------------
 Center     Atomic      Atomic             Coordinates (Angstroms)
 Number     Number       Type             X           Y           Z
 ---------------------------------------------------------------------
      1          6           0       -8.420641    1.207022    0.005618
      2          6           0       -8.120419   -0.098502    0.009155
      3          6           0       -6.743793   -0.658854    0.006772
      4          6           0       -5.616247    0.073376    0.000618
      5          6           0       -4.291741   -0.583934   -0.000688
      6          6           0       -3.163215    0.138174   -0.005750
      7          6           0       -1.839978   -0.519803   -0.005905
      8          6           0       -0.711738    0.202384   -0.009018
      9          6           0        0.611586   -0.455369   -0.007653
     10          6           0        1.739706    0.267010   -0.008408
     11          6           0        3.063137   -0.390527   -0.005501
     12          6           0        4.191157    0.332021   -0.004112
     13          6           0        5.514680   -0.325345   -0.000006
     14          6           0        6.642603    0.397266    0.002819
     15          6           0        7.965465   -0.260315    0.007566
     16          6           0        9.092041    0.455947    0.010968
     17          1           0       -7.666906    1.983672    0.000555
     18          1           0       -8.942539   -0.807841    0.014280
     19          1           0       -6.664838   -1.742717    0.010545
     20          1           0       -5.651777    1.156362   -0.003163
     21          1           0       -4.236632   -1.670232    0.003051
     22          1           0       -3.216698    1.224527   -0.009156
     23          1           0       -1.786070   -1.606147   -0.002673
     24          1           0       -0.765690    1.288731   -0.011777
     25          1           0        0.665644   -1.541710   -0.005166
     26          1           0        1.685572    1.353350   -0.010400
     27          1           0        3.117358   -1.476861   -0.003775
     28          1           0        4.136880    1.418356   -0.005441
     29          1           0        5.569174   -1.411681    0.001149
     30          1           0        6.588991    1.483654    0.001898
     31          1           0        8.031571   -1.345046    0.008479
     32          1           0        9.067744    1.541738    0.010295
     33          1           0       10.053903   -0.046548    0.014546
     34          1           0       -9.461301    1.515078    0.007910
 ---------------------------------------------------------------------
 Rotational constants (GHZ):           6.2585333           0.0758749           0.0749663
 Standard basis: 6-31G(d,p) (6D, 7F)
 There are   330 symmetry adapted cartesian basis functions of A   symmetry.
 There are   330 symmetry adapted basis functions of A   symmetry.
   330 basis functions,   574 primitive gaussians,   330 cartesian basis functions
    57 alpha electrons       57 beta electrons
       nuclear repulsion energy       802.5965491886 Hartrees.
 NAtoms=   34 NActive=   34 NUniq=   34 SFac= 1.00D+00 NAtFMM=   60 NAOKFM=F Big=F
 Integral buffers will be    131072 words long.
 Raffenetti 2 integral format.
 Two-electron integral symmetry is turned on.
 One-electron integrals computed using PRISM.
 NBasis=   330 RedAO= T EigKep=  1.23D-03  NBF=   330
 NBsUse=   330 1.00D-06 EigRej= -1.00D+00 NBFU=   330
 ExpMin= 1.61D-01 ExpMax= 3.05D+03 ExpMxC= 4.57D+02 IAcc=3 IRadAn=         5 AccDes= 0.00D+00
 Harris functional with IExCor=  402 and IRadAn=       5 diagonalized for initial guess.
 HarFok:  IExCor=  402 AccDes= 0.00D+00 IRadAn=         5 IDoV= 1 UseB2=F ITyADJ=14
 ICtDFT=  3500011 ScaDFX=  1.000000  1.000000  1.000000  1.000000
 FoFCou: FMM=F IPFlag=           0 FMFlag=      100000 FMFlg1=           0
         NFxFlg=           0 DoJE=T BraDBF=F KetDBF=T FulRan=T
         wScrn=  0.000000 ICntrl=       500 IOpCl=  0 I1Cent=   200000004 NGrid=           0
         NMat0=    1 NMatS0=      1 NMatT0=    0 NMatD0=    1 NMtDS0=    0 NMtDT0=    0
 Petite list used in FoFCou.
 Requested convergence on RMS density matrix=1.00D-08 within 128 cycles.
 Requested convergence on MAX density matrix=1.00D-06.
 Requested convergence on             energy=1.00D-06.
 No special actions if energy rises.
 Integral accuracy reduced to 1.0D-05 until final iterations.
 Initial convergence to 1.0D-05 achieved.  Increase integral accuracy.
 SCF Done:  E(RB3LYP) =  -620.443553278     A.U. after   13 cycles
            NFock= 13  Conv=0.74D-08     -V/T= 2.0101

 **********************************************************************

            Population analysis using the SCF Density.

 **********************************************************************

 Orbital symmetries:
       Occupied  (A) (A) (A) (A) (A) (A) (A) (A) (A) (A) (A) (A)
                 (A) (A) (A) (A) (A) (A) (A) (A) (A) (A) (A) (A)
                 (A) (A) (A) (A) (A) (A) (A) (A) (A) (A) (A) (A)
                 (A) (A) (A) (A) (A) (A) (A) (A) (A) (A) (A) (A)
                 (A) (A) (A) (A) (A) (A) (A) (A) (A)
       Virtual   (A) (A) (A) (A) (A) (A) (A) (A) (A) (A) (A) (A)
                 (A) (A) (A) (A) (A) (A) (A) (A) (A) (A) (A) (A)
                 (A) (A) (A) (A) (A) (A) (A) (A) (A) (A) (A) (A)
                 (A) (A) (A) (A) (A) (A) (A) (A) (A) (A) (A) (A)
                 (A) (A) (A) (A) (A) (A) (A) (A) (A) (A) (A) (A)
                 (A) (A) (A) (A) (A) (A) (A) (A) (A) (A) (A) (A)
                 (A) (A) (A) (A) (A) (A) (A) (A) (A) (A) (A) (A)
                 (A) (A) (A) (A) (A) (A) (A) (A) (A) (A) (A) (A)
                 (A) (A) (A) (A) (A) (A) (A) (A) (A) (A) (A) (A)
                 (A) (A) (A) (A) (A) (A) (A) (A) (A) (A) (A) (A)
                 (A) (A) (A) (A) (A) (A) (A) (A) (A) (A) (A) (A)
                 (A) (A) (A) (A) (A) (A) (A) (A) (A) (A) (A) (A)
                 (A) (A) (A) (A) (A) (A) (A) (A) (A) (A) (A) (A)
                 (A) (A) (A) (A) (A) (A) (A) (A) (A) (A) (A) (A)
                 (A) (A) (A) (A) (A) (A) (A) (A) (A) (A) (A) (A)
                 (A) (A) (A) (A) (A) (A) (A) (A) (A) (A) (A) (A)
                 (A) (A) (A) (A) (A) (A) (A) (A) (A) (A) (A) (A)
                 (A) (A) (A) (A) (A) (A) (A) (A) (A) (A) (A) (A)
                 (A) (A) (A) (A) (A) (A) (A) (A) (A) (A) (A) (A)
                 (A) (A) (A) (A) (A) (A) (A) (A) (A) (A) (A) (A)
                 (A) (A) (A) (A) (A) (A) (A) (A) (A) (A) (A) (A)
                 (A) (A) (A) (A) (A) (A) (A) (A) (A) (A) (A) (A)
                 (A) (A) (A) (A) (A) (A) (A) (A) (A)
 The electronic state is 1-A.
 Alpha  occ. eigenvalues --  -10.19219 -10.19214 -10.19169 -10.19161 -10.19154
 Alpha  occ. eigenvalues --  -10.19144 -10.19131 -10.19116 -10.19085 -10.19066
 Alpha  occ. eigenvalues --  -10.19053 -10.19040 -10.18983 -10.18969 -10.18022
 Alpha  occ. eigenvalues --  -10.17944  -0.82802  -0.82023  -0.80793  -0.79160
 Alpha  occ. eigenvalues --   -0.77122  -0.74689  -0.72024  -0.69703  -0.63234
 Alpha  occ. eigenvalues --   -0.60857  -0.57714  -0.56869  -0.56139  -0.55007
 Alpha  occ. eigenvalues --   -0.54715  -0.52838  -0.48859  -0.47579  -0.47355
 Alpha  occ. eigenvalues --   -0.45450  -0.44555  -0.43200  -0.41449  -0.40899
 Alpha  occ. eigenvalues --   -0.39040  -0.38779  -0.37607  -0.37520  -0.36616
 Alpha  occ. eigenvalues --   -0.35992  -0.35667  -0.35103  -0.34394  -0.34119
 Alpha  occ. eigenvalues --   -0.33195  -0.32557  -0.30460  -0.27830  -0.24701
 Alpha  occ. eigenvalues --   -0.21248  -0.18031
 Alpha virt. eigenvalues --   -0.06743  -0.03448   0.00475   0.04275   0.07353
 Alpha virt. eigenvalues --    0.08407   0.09253   0.09411   0.09876   0.10779
 Alpha virt. eigenvalues --    0.10956   0.11354   0.12584   0.13096   0.14107
 Alpha virt. eigenvalues --    0.14254   0.14863   0.15353   0.15663   0.16166
 Alpha virt. eigenvalues --    0.17511   0.19076   0.19762   0.19818   0.21138
 Alpha virt. eigenvalues --    0.21472   0.26101   0.29285   0.30370   0.31409
 Alpha virt. eigenvalues --    0.32741   0.33206   0.34836   0.36143   0.37012
 Alpha virt. eigenvalues --    0.37954   0.39540   0.41712   0.41906   0.42592
 Alpha virt. eigenvalues --    0.44529   0.47470   0.49114   0.51707   0.52247
 Alpha virt. eigenvalues --    0.53266   0.53934   0.54588   0.54833   0.56818
 Alpha virt. eigenvalues --    0.57451   0.57474   0.58459   0.58812   0.59150
 Alpha virt. eigenvalues --    0.59160   0.59614   0.60343   0.60769   0.61987
 Alpha virt. eigenvalues --    0.62070   0.62428   0.64219   0.64669   0.65072
 Alpha virt. eigenvalues --    0.65766   0.66058   0.67386   0.67836   0.68353
 Alpha virt. eigenvalues --    0.69759   0.70713   0.72134   0.75132   0.75680
 Alpha virt. eigenvalues --    0.78748   0.79611   0.81049   0.82593   0.83208
 Alpha virt. eigenvalues --    0.83976   0.84645   0.85283   0.85834   0.86148
 Alpha virt. eigenvalues --    0.86880   0.87321   0.87804   0.87984   0.88710
 Alpha virt. eigenvalues --    0.89719   0.91309   0.91620   0.92278   0.93434
 Alpha virt. eigenvalues --    0.94833   0.96747   0.99046   1.01249   1.02956
 Alpha virt. eigenvalues --    1.03377   1.04727   1.05164   1.06507   1.07278
 Alpha virt. eigenvalues --    1.09572   1.09990   1.11924   1.12839   1.16057
 Alpha virt. eigenvalues --    1.18820   1.20621   1.24535   1.27681   1.28986
 Alpha virt. eigenvalues --    1.29677   1.29746   1.30802   1.30810   1.31132
 Alpha virt. eigenvalues --    1.32044   1.32543   1.32998   1.33315   1.34508
 Alpha virt. eigenvalues --    1.36333   1.37773   1.37854   1.39262   1.41239
 Alpha virt. eigenvalues --    1.43580   1.46009   1.47400   1.47979   1.49242
 Alpha virt. eigenvalues --    1.50767   1.50801   1.51850   1.52933   1.53079
 Alpha virt. eigenvalues --    1.74810   1.76405   1.76595   1.76891   1.76994
 Alpha virt. eigenvalues --    1.78055   1.78083   1.83093   1.86231   1.86404
 Alpha virt. eigenvalues --    1.87651   1.90614   1.91056   1.91965   1.93127
 Alpha virt. eigenvalues --    1.93542   1.94245   1.95462   1.96119   1.96528
 Alpha virt. eigenvalues --    1.98148   1.99921   2.00890   2.03644   2.04473
 Alpha virt. eigenvalues --    2.05289   2.06985   2.09289   2.09642   2.10780
 Alpha virt. eigenvalues --    2.12188   2.15175   2.16124   2.16943   2.18129
 Alpha virt. eigenvalues --    2.18197   2.20968   2.21405   2.22474   2.23674
 Alpha virt. eigenvalues --    2.24675   2.27973   2.28364   2.31202   2.34246
 Alpha virt. eigenvalues --    2.36190   2.36930   2.40799   2.41398   2.41606
 Alpha virt. eigenvalues --    2.44888   2.45693   2.47391   2.47741   2.48820
 Alpha virt. eigenvalues --    2.49496   2.50080   2.50817   2.51785   2.52282
 Alpha virt. eigenvalues --    2.52734   2.53503   2.54685   2.55516   2.56367
 Alpha virt. eigenvalues --    2.58556   2.59521   2.60805   2.60967   2.61935
 Alpha virt. eigenvalues --    2.63073   2.65059   2.66984   2.67960   2.68195
 Alpha virt. eigenvalues --    2.68284   2.69529   2.70120   2.70686   2.71390
 Alpha virt. eigenvalues --    2.72447   2.73899   2.78562   2.80021   2.82975
 Alpha virt. eigenvalues --    2.84146   2.87291   2.88163   2.88814   2.91443
 Alpha virt. eigenvalues --    2.92221   2.92344   2.94224   2.95727   2.97244
 Alpha virt. eigenvalues --    2.98480   2.99442   2.99985   3.11364   3.25947
 Alpha virt. eigenvalues --    3.28013   3.35253   3.35635   3.36727   3.38796
 Alpha virt. eigenvalues --    3.41564   3.45091   3.48008   3.50093   3.53436
 Alpha virt. eigenvalues --    3.55694   3.59731   3.61928   3.65574   3.66581
 Alpha virt. eigenvalues --    3.71029   3.76309   4.12510   4.13728   4.13948
 Alpha virt. eigenvalues --    4.14363   4.15336   4.17131   4.19839   4.25059
 Alpha virt. eigenvalues --    4.27922   4.33627   4.40685   4.48778   4.57180
 Alpha virt. eigenvalues --    4.64879   4.70976   4.74928
          Condensed to atoms (all electrons):
               1          2          3          4          5          6
     1  C    4.951076   0.645635  -0.044982  -0.020008   0.000329   0.000013
     2  C    0.645635   4.744517   0.411996  -0.027341   0.003890  -0.000233
     3  C   -0.044982   0.411996   4.884172   0.590583  -0.018141   0.002779
     4  C   -0.020008  -0.027341   0.590583   4.847751   0.410884  -0.019060
     5  C    0.000329   0.003890  -0.018141   0.410884   4.866507   0.563403
     6  C    0.000013  -0.000233   0.002779  -0.019060   0.563403   4.886984
     7  C   -0.000000   0.000002  -0.000262   0.003708  -0.017144   0.395807
     8  C   -0.000000  -0.000000   0.000004  -0.000258   0.002527  -0.017152
     9  C   -0.000000   0.000000  -0.000000   0.000002  -0.000253   0.003669
    10  C    0.000000  -0.000000  -0.000000  -0.000000   0.000004  -0.000256
    11  C   -0.000000   0.000000   0.000000   0.000000  -0.000000   0.000002
    12  C    0.000000   0.000000   0.000000   0.000000  -0.000000  -0.000000
    13  C    0.000000   0.000000  -0.000000   0.000000   0.000000   0.000000
    14  C    0.000000   0.000000   0.000000  -0.000000   0.000000   0.000000
    15  C    0.000000   0.000000   0.000000   0.000000  -0.000000   0.000000
    16  C    0.000000   0.000000   0.000000   0.000000   0.000000  -0.000000
    17  H    0.378159  -0.030362  -0.015184   0.004541   0.000036  -0.000004
    18  H   -0.055043   0.374945  -0.038162   0.005189  -0.000129   0.000002
    19  H    0.005992  -0.042491   0.376059  -0.058619  -0.010488   0.000619
    20  H    0.003746  -0.011203  -0.046989   0.374696  -0.047820  -0.005715
    21  H   -0.000001   0.000154  -0.005193  -0.048118   0.381077  -0.052887
    22  H   -0.000002  -0.000001   0.000557  -0.009359  -0.052601   0.380456
    23  H   -0.000000  -0.000000  -0.000004   0.000240  -0.005249  -0.047977
    24  H   -0.000000   0.000000  -0.000000  -0.000004   0.000539  -0.009285
    25  H    0.000000   0.000000   0.000000  -0.000000  -0.000004   0.000250
    26  H    0.000000  -0.000000   0.000000   0.000000  -0.000000  -0.000004
    27  H   -0.000000   0.000000   0.000000  -0.000000   0.000000  -0.000000
    28  H    0.000000  -0.000000   0.000000  -0.000000   0.000000   0.000000
    29  H    0.000000   0.000000  -0.000000   0.000000   0.000000  -0.000000
    30  H    0.000000   0.000000   0.000000  -0.000000   0.000000  -0.000000
    31  H    0.000000   0.000000   0.000000   0.000000  -0.000000   0.000000
    32  H    0.000000   0.000000   0.000000   0.000000   0.000000  -0.000000
    33  H    0.000000   0.000000   0.000000   0.000000   0.000000   0.000000
    34  H    0.373389  -0.020551   0.004894   0.000153  -0.000005   0.000000
               7          8          9         10         11         12
     1  C   -0.000000  -0.000000  -0.000000   0.000000  -0.000000   0.000000
     2  C    0.000002  -0.000000   0.000000  -0.000000   0.000000   0.000000
     3  C   -0.000262   0.000004  -0.000000  -0.000000   0.000000   0.000000
     4  C    0.003708  -0.000258   0.000002  -0.000000   0.000000   0.000000
     5  C   -0.017144   0.002527  -0.000253   0.000004  -0.000000  -0.000000
     6  C    0.395807  -0.017152   0.003669  -0.000256   0.000002  -0.000000
     7  C    4.882587   0.563902  -0.017527   0.002561  -0.000256   0.000004
     8  C    0.563902   4.880306   0.397236  -0.017442   0.003676  -0.000256
     9  C   -0.017527   0.397236   4.880864   0.564300  -0.017374   0.002544
    10  C    0.002561  -0.017442   0.564300   4.881851   0.396069  -0.017253
    11  C   -0.000256   0.003676  -0.017374   0.396069   4.880968   0.563619
    12  C    0.000004  -0.000256   0.002544  -0.017253   0.563619   4.887487
    13  C   -0.000000   0.000002  -0.000256   0.003647  -0.016594   0.392957
    14  C   -0.000000  -0.000000   0.000004  -0.000255   0.002514  -0.018378
    15  C    0.000000   0.000000  -0.000000   0.000002  -0.000268   0.004044
    16  C    0.000000   0.000000  -0.000000  -0.000000   0.000005  -0.000276
    17  H   -0.000000   0.000000  -0.000000   0.000000  -0.000000   0.000000
    18  H   -0.000000   0.000000  -0.000000   0.000000  -0.000000   0.000000
    19  H   -0.000006   0.000000   0.000000   0.000000  -0.000000   0.000000
    20  H    0.000256  -0.000003  -0.000000   0.000000  -0.000000  -0.000000
    21  H   -0.009280   0.000550  -0.000004  -0.000000   0.000000   0.000000
    22  H   -0.047841  -0.005305   0.000249  -0.000004  -0.000000   0.000000
    23  H    0.380949  -0.052669  -0.009285   0.000542  -0.000004  -0.000000
    24  H   -0.052800   0.380884  -0.047872  -0.005279   0.000250  -0.000004
    25  H   -0.005277  -0.047893   0.380873  -0.052753  -0.009286   0.000541
    26  H    0.000542  -0.009294  -0.052747   0.380909  -0.047889  -0.005279
    27  H   -0.000004   0.000250  -0.005279  -0.047904   0.380928  -0.052923
    28  H   -0.000000  -0.000004   0.000542  -0.009292  -0.052696   0.381121
    29  H    0.000000  -0.000000  -0.000004   0.000252  -0.005253  -0.048018
    30  H    0.000000   0.000000  -0.000000  -0.000004   0.000550  -0.009567
    31  H    0.000000  -0.000000   0.000000  -0.000000  -0.000005   0.000269
    32  H    0.000000  -0.000000   0.000000   0.000000  -0.000000  -0.000000
    33  H    0.000000   0.000000  -0.000000   0.000000  -0.000000   0.000003
    34  H    0.000000  -0.000000   0.000000  -0.000000   0.000000   0.000000
              13         14         15         16         17         18
     1  C    0.000000   0.000000   0.000000   0.000000   0.378159  -0.055043
     2  C    0.000000   0.000000   0.000000   0.000000  -0.030362   0.374945
     3  C   -0.000000   0.000000   0.000000   0.000000  -0.015184  -0.038162
     4  C    0.000000  -0.000000   0.000000   0.000000   0.004541   0.005189
     5  C    0.000000   0.000000  -0.000000   0.000000   0.000036  -0.000129
     6  C    0.000000   0.000000   0.000000  -0.000000  -0.000004   0.000002
     7  C   -0.000000  -0.000000   0.000000   0.000000  -0.000000  -0.000000
     8  C    0.000002  -0.000000   0.000000   0.000000   0.000000   0.000000
     9  C   -0.000256   0.000004  -0.000000  -0.000000  -0.000000  -0.000000
    10  C    0.003647  -0.000255   0.000002  -0.000000   0.000000   0.000000
    11  C   -0.016594   0.002514  -0.000268   0.000005  -0.000000  -0.000000
    12  C    0.392957  -0.018378   0.004044  -0.000276   0.000000   0.000000
    13  C    4.868558   0.577790  -0.019989   0.002703   0.000000   0.000000
    14  C    0.577790   4.861428   0.421016  -0.031455   0.000000   0.000000
    15  C   -0.019989   0.421016   4.740004   0.618709   0.000000   0.000000
    16  C    0.002703  -0.031455   0.618709   4.965506   0.000000   0.000000
    17  H    0.000000   0.000000   0.000000   0.000000   0.602582   0.006210
    18  H    0.000000   0.000000   0.000000   0.000000   0.006210   0.637829
    19  H   -0.000000   0.000000   0.000000   0.000000   0.000018  -0.005909
    20  H    0.000000  -0.000000   0.000000   0.000000   0.003297   0.000060
    21  H   -0.000000   0.000000  -0.000000   0.000000   0.000001  -0.000001
    22  H   -0.000000   0.000000   0.000000  -0.000000   0.000000   0.000000
    23  H    0.000000   0.000000  -0.000000   0.000000  -0.000000   0.000000
    24  H   -0.000000   0.000000  -0.000000  -0.000000   0.000000   0.000000
    25  H   -0.000004  -0.000000   0.000000   0.000000   0.000000  -0.000000
    26  H    0.000249  -0.000004  -0.000000   0.000000   0.000000   0.000000
    27  H   -0.009219   0.000532  -0.000004   0.000000   0.000000  -0.000000
    28  H   -0.048015  -0.005233   0.000238  -0.000003   0.000000   0.000000
    29  H    0.381345  -0.053578  -0.009062   0.000486   0.000000   0.000000
    30  H   -0.051035   0.379527  -0.046688  -0.005164   0.000000   0.000000
    31  H   -0.005756  -0.047475   0.381960  -0.050980   0.000000   0.000000
    32  H    0.000562  -0.012739  -0.035915   0.382768   0.000000   0.000000
    33  H   -0.000224   0.004035  -0.020436   0.369506   0.000000   0.000000
    34  H    0.000000   0.000000   0.000000   0.000000  -0.043985  -0.009384
              19         20         21         22         23         24
     1  C    0.005992   0.003746  -0.000001  -0.000002  -0.000000  -0.000000
     2  C   -0.042491  -0.011203   0.000154  -0.000001  -0.000000   0.000000
     3  C    0.376059  -0.046989  -0.005193   0.000557  -0.000004  -0.000000
     4  C   -0.058619   0.374696  -0.048118  -0.009359   0.000240  -0.000004
     5  C   -0.010488  -0.047820   0.381077  -0.052601  -0.005249   0.000539
     6  C    0.000619  -0.005715  -0.052887   0.380456  -0.047977  -0.009285
     7  C   -0.000006   0.000256  -0.009280  -0.047841   0.380949  -0.052800
     8  C    0.000000  -0.000003   0.000550  -0.005305  -0.052669   0.380884
     9  C    0.000000  -0.000000  -0.000004   0.000249  -0.009285  -0.047872
    10  C    0.000000   0.000000  -0.000000  -0.000004   0.000542  -0.005279
    11  C   -0.000000  -0.000000   0.000000  -0.000000  -0.000004   0.000250
    12  C    0.000000  -0.000000   0.000000   0.000000  -0.000000  -0.000004
    13  C   -0.000000   0.000000  -0.000000  -0.000000   0.000000  -0.000000
    14  C    0.000000  -0.000000   0.000000   0.000000   0.000000   0.000000
    15  C    0.000000   0.000000  -0.000000   0.000000  -0.000000  -0.000000
    16  C    0.000000   0.000000   0.000000  -0.000000   0.000000  -0.000000
    17  H    0.000018   0.003297   0.000001   0.000000  -0.000000   0.000000
    18  H   -0.005909   0.000060  -0.000001   0.000000   0.000000   0.000000
    19  H    0.644175   0.006234   0.004327   0.000016   0.000001  -0.000000
    20  H    0.006234   0.634225   0.004379   0.004265   0.000005   0.000001
    21  H    0.004327   0.004379   0.633637   0.006065   0.004048   0.000014
    22  H    0.000016   0.004265   0.006065   0.634567   0.004271   0.004061
    23  H    0.000001   0.000005   0.004048   0.004271   0.634401   0.006068
    24  H   -0.000000   0.000001   0.000014   0.004061   0.006068   0.634682
    25  H   -0.000000  -0.000000   0.000001   0.000005   0.004051   0.004270
    26  H    0.000000  -0.000000  -0.000000   0.000001   0.000014   0.004055
    27  H    0.000000   0.000000  -0.000000  -0.000000   0.000001   0.000005
    28  H    0.000000   0.000000   0.000000  -0.000000  -0.000000   0.000001
    29  H    0.000000   0.000000   0.000000   0.000000  -0.000000  -0.000000
    30  H    0.000000   0.000000   0.000000   0.000000   0.000000  -0.000000
    31  H    0.000000   0.000000   0.000000   0.000000   0.000000   0.000000
    32  H    0.000000   0.000000   0.000000   0.000000   0.000000   0.000000
    33  H    0.000000   0.000000   0.000000   0.000000  -0.000000   0.000000
    34  H   -0.000166  -0.000090   0.000000  -0.000000   0.000000  -0.000000
              25         26         27         28         29         30
     1  C    0.000000   0.000000  -0.000000   0.000000   0.000000   0.000000
     2  C    0.000000  -0.000000   0.000000  -0.000000   0.000000   0.000000
     3  C    0.000000   0.000000   0.000000   0.000000  -0.000000   0.000000
     4  C   -0.000000   0.000000  -0.000000  -0.000000   0.000000  -0.000000
     5  C   -0.000004  -0.000000   0.000000   0.000000   0.000000   0.000000
     6  C    0.000250  -0.000004  -0.000000   0.000000  -0.000000  -0.000000
     7  C   -0.005277   0.000542  -0.000004  -0.000000   0.000000   0.000000
     8  C   -0.047893  -0.009294   0.000250  -0.000004  -0.000000   0.000000
     9  C    0.380873  -0.052747  -0.005279   0.000542  -0.000004  -0.000000
    10  C   -0.052753   0.380909  -0.047904  -0.009292   0.000252  -0.000004
    11  C   -0.009286  -0.047889   0.380928  -0.052696  -0.005253   0.000550
    12  C    0.000541  -0.005279  -0.052923   0.381121  -0.048018  -0.009567
    13  C   -0.000004   0.000249  -0.009219  -0.048015   0.381345  -0.051035
    14  C   -0.000000  -0.000004   0.000532  -0.005233  -0.053578   0.379527
    15  C    0.000000  -0.000000  -0.000004   0.000238  -0.009062  -0.046688
    16  C    0.000000   0.000000   0.000000  -0.000003   0.000486  -0.005164
    17  H    0.000000   0.000000   0.000000   0.000000   0.000000   0.000000
    18  H   -0.000000   0.000000  -0.000000   0.000000   0.000000   0.000000
    19  H   -0.000000   0.000000   0.000000   0.000000   0.000000   0.000000
    20  H   -0.000000  -0.000000   0.000000   0.000000   0.000000   0.000000
    21  H    0.000001  -0.000000  -0.000000   0.000000   0.000000   0.000000
    22  H    0.000005   0.000001  -0.000000  -0.000000   0.000000   0.000000
    23  H    0.004051   0.000014   0.000001  -0.000000  -0.000000   0.000000
    24  H    0.004270   0.004055   0.000005   0.000001  -0.000000  -0.000000
    25  H    0.634726   0.006070   0.004055   0.000014   0.000001  -0.000000
    26  H    0.006070   0.634622   0.004271   0.004052   0.000005   0.000001
    27  H    0.004055   0.004271   0.634728   0.006065   0.004065   0.000014
    28  H    0.000014   0.004052   0.006065   0.634135   0.004269   0.004053
    29  H    0.000001   0.000005   0.004065   0.004269   0.634130   0.006059
    30  H   -0.000000   0.000001   0.000014   0.004053   0.006059   0.631559
    31  H   -0.000000  -0.000000   0.000001   0.000005   0.004188   0.004338
    32  H    0.000000  -0.000000  -0.000000   0.000001   0.000014   0.004584
    33  H   -0.000000   0.000000  -0.000000   0.000000  -0.000008   0.000025
    34  H   -0.000000   0.000000   0.000000   0.000000   0.000000   0.000000
              31         32         33         34
     1  C    0.000000   0.000000   0.000000   0.373389
     2  C    0.000000   0.000000   0.000000  -0.020551
     3  C    0.000000   0.000000   0.000000   0.004894
     4  C    0.000000   0.000000   0.000000   0.000153
     5  C   -0.000000   0.000000   0.000000  -0.000005
     6  C    0.000000  -0.000000   0.000000   0.000000
     7  C    0.000000   0.000000   0.000000   0.000000
     8  C   -0.000000  -0.000000   0.000000  -0.000000
     9  C    0.000000   0.000000  -0.000000   0.000000
    10  C   -0.000000   0.000000   0.000000  -0.000000
    11  C   -0.000005  -0.000000  -0.000000   0.000000
    12  C    0.000269  -0.000000   0.000003   0.000000
    13  C   -0.005756   0.000562  -0.000224   0.000000
    14  C   -0.047475  -0.012739   0.004035   0.000000
    15  C    0.381960  -0.035915  -0.020436   0.000000
    16  C   -0.050980   0.382768   0.369506   0.000000
    17  H    0.000000   0.000000   0.000000  -0.043985
    18  H    0.000000   0.000000   0.000000  -0.009384
    19  H    0.000000   0.000000   0.000000  -0.000166
    20  H    0.000000   0.000000   0.000000  -0.000090
    21  H    0.000000   0.000000   0.000000   0.000000
    22  H    0.000000   0.000000   0.000000  -0.000000
    23  H    0.000000   0.000000  -0.000000   0.000000
    24  H    0.000000   0.000000   0.000000  -0.000000
    25  H   -0.000000   0.000000  -0.000000  -0.000000
    26  H   -0.000000  -0.000000   0.000000   0.000000
    27  H    0.000001  -0.000000  -0.000000   0.000000
    28  H    0.000005   0.000001   0.000000   0.000000
    29  H    0.004188   0.000014  -0.000008   0.000000
    30  H    0.004338   0.004584   0.000025   0.000000
    31  H    0.631735   0.005979  -0.008098   0.000000
    32  H    0.005979   0.601481  -0.042379   0.000000
    33  H   -0.008098  -0.042379   0.602050   0.000000
    34  H    0.000000   0.000000   0.000000   0.597424
 Mulliken charges:
               1
     1  C   -0.238304
     2  C   -0.048957
     3  C   -0.102127
     4  C   -0.054979
     5  C   -0.077361
     6  C   -0.081410
     7  C   -0.079922
     8  C   -0.079061
     9  C   -0.079684
    10  C   -0.079695
    11  C   -0.078956
    12  C   -0.080635
    13  C   -0.076723
    14  C   -0.077730
    15  C   -0.033611
    16  C   -0.251805
    17  H    0.094691
    18  H    0.084392
    19  H    0.080239
    20  H    0.080656
    21  H    0.081230
    22  H    0.080600
    23  H    0.080597
    24  H    0.080415
    25  H    0.080361
    26  H    0.080427
    27  H    0.080418
    28  H    0.080747
    29  H    0.081110
    30  H    0.081749
    31  H    0.083840
    32  H    0.095642
    33  H    0.095526
    34  H    0.098320
 Sum of Mulliken charges =  -0.00000
 Mulliken charges with hydrogens summed into heavy atoms:
               1
     1  C   -0.045292
     2  C    0.035435
     3  C   -0.021888
     4  C    0.025677
     5  C    0.003869
     6  C   -0.000810
     7  C    0.000675
     8  C    0.001354
     9  C    0.000677
    10  C    0.000732
    11  C    0.001462
    12  C    0.000113
    13  C    0.004387
    14  C    0.004018
    15  C    0.050229
    16  C   -0.060636
 Electronic spatial extent (au):  <R**2>=          13531.8670
 Charge=              0.0000 electrons
 Dipole moment (field-independent basis, Debye):
    X=              0.0181    Y=             -0.1410    Z=              0.0031  Tot=              0.1422
 Quadrupole moment (field-independent basis, Debye-Ang):
   XX=            -91.5951   YY=            -84.8164   ZZ=           -105.1193
   XY=              0.1013   XZ=             -0.0052   YZ=             -0.0480
 Traceless Quadrupole moment (field-independent basis, Debye-Ang):
   XX=              2.2485   YY=              9.0272   ZZ=            -11.2757
   XY=              0.1013   XZ=             -0.0052   YZ=             -0.0480
 Octapole moment (field-independent basis, Debye-Ang**2):
  XXX=            -16.7674  YYY=             -0.9203  ZZZ=             -0.0042  XYY=              2.1352
  XXY=            -14.5790  XXZ=              0.5439  XZZ=             -0.2108  YZZ=             -0.3046
  YYZ=             -0.0000  XYZ=              0.1279
 Hexadecapole moment (field-independent basis, Debye-Ang**3):
 XXXX=         -17359.9662 YYYY=           -341.0127 ZZZZ=           -108.9713 XXXY=             -7.2868
 XXXZ=             -0.4788 YYYX=              7.9389 YYYZ=             -0.1122 ZZZX=             -0.0332
 ZZZY=             -0.0481 XXYY=          -2836.3359 XXZZ=          -3433.1056 YYZZ=            -84.4155
 XXYZ=             -1.4449 YYXZ=              0.0151 ZZXY=              1.3759
 N-N= 8.025965491886D+02 E-N=-3.040164505850D+03  KE= 6.142653227110D+02
 Calling FoFJK, ICntrl=      2127 FMM=F ISym2X=0 I1Cent= 0 IOpClX= 0 NMat=1 NMatS=1 NMatT=0.
 ***** Axes restored to original set *****
 -------------------------------------------------------------------
 Center     Atomic                   Forces (Hartrees/Bohr)
 Number     Number              X              Y              Z
 -------------------------------------------------------------------
      1        6          -0.005129098    0.004659434   -0.004004973
      2        6           0.015051814   -0.007456890    0.002090138
      3        6          -0.024095844    0.010607915   -0.001284598
      4        6           0.031591121   -0.002962968   -0.015333348
      5        6          -0.035408821    0.009506631    0.007590560
      6        6           0.035286345   -0.008655749   -0.008862898
      7        6          -0.035997628    0.009076816    0.008686731
      8        6           0.036027060   -0.009040312   -0.008794402
      9        6          -0.036002867    0.009001202    0.008872466
     10        6           0.035746500   -0.008935382   -0.008842727
     11        6          -0.035428025    0.008524625    0.009302302
     12        6           0.034491801   -0.008267426   -0.009127543
     13        6          -0.033419142    0.006918301    0.010536185
     14        6           0.029669037   -0.005545288   -0.010277590
     15        6          -0.021116338    0.000083569    0.013240358
     16        6           0.008592448   -0.003575333    0.000040824
     17        1          -0.000759179   -0.000924201    0.001914125
     18        1           0.001769652    0.000662735   -0.002139725
     19        1           0.000517760    0.000160340   -0.000568866
     20        1           0.000860209   -0.001781065    0.002230565
     21        1          -0.002726563    0.001673837   -0.000863091
     22        1           0.002641066   -0.001659896    0.000916741
     23        1          -0.002652689    0.001645076   -0.000854235
     24        1           0.002650486   -0.001639286    0.000874314
     25        1          -0.002645041    0.001654750   -0.000864672
     26        1           0.002653867   -0.001640304    0.000865122
     27        1          -0.002632483    0.001661360   -0.000877044
     28        1           0.002656548   -0.001635112    0.000844778
     29        1          -0.002613085    0.001661131   -0.000887134
     30        1           0.002865424   -0.001734934    0.000855743
     31        1          -0.003859422    0.003025287   -0.002189104
     32        1           0.002059537   -0.001200404    0.000540570
     33        1          -0.000037554   -0.002434599    0.003756416
     34        1          -0.000606895   -0.001433861    0.002614011
 -------------------------------------------------------------------
 Cartesian Forces:  Max     0.036027060 RMS     0.012848879

 GradGradGradGradGradGradGradGradGradGradGradGradGradGradGradGradGradGrad
 Berny optimization.
 FormGI is forming the generalized inverse of G from B-inverse, IUseBI=4.
 Internal  Forces:  Max     0.021705157 RMS     0.007458009
 Search for a local minimum.
 Step number   1 out of a maximum of  151
 All quantities printed in internal units (Hartrees-Bohrs-Radians)
 Mixed Optimization -- RFO/linear search
 Second derivative matrix not updated -- first step.
 ITU=  0
     Eigenvalues ---    0.00947   0.01048   0.01060   0.01060   0.01060
     Eigenvalues ---    0.01060   0.01066   0.01907   0.01924   0.01961
     Eigenvalues ---    0.01971   0.01977   0.01978   0.01978   0.01978
     Eigenvalues ---    0.01978   0.01978   0.01979   0.01979   0.01982
     Eigenvalues ---    0.01999   0.02824   0.02885   0.02888   0.02888
     Eigenvalues ---    0.02888   0.02888   0.02888   0.02888   0.02949
     Eigenvalues ---    0.02949   0.16000   0.16000   0.16000   0.16000
     Eigenvalues ---    0.16000   0.16000   0.16000   0.16000   0.16000
     Eigenvalues ---    0.16000   0.16000   0.16000   0.16000   0.16000
     Eigenvalues ---    0.16000   0.16000   0.16000   0.16000   0.22000
     Eigenvalues ---    0.22000   0.22000   0.22000   0.22000   0.22000
     Eigenvalues ---    0.22000   0.22000   0.22000   0.22000   0.22000
     Eigenvalues ---    0.22000   0.22000   0.22000   0.33858   0.34726
     Eigenvalues ---    0.34823   0.34824   0.34825   0.34825   0.34881
     Eigenvalues ---    0.35079   0.35080   0.35080   0.35081   0.35081
     Eigenvalues ---    0.35081   0.35081   0.35081   0.35081   0.35083
     Eigenvalues ---    0.35192   0.35192   0.35272   0.35297   0.35361
     Eigenvalues ---    0.35371   0.35566   0.35720   0.56218   0.57252
     Eigenvalues ---    0.57294   0.57297   0.57298   0.57298   0.57307
     Eigenvalues ---    0.58341
 RFO step:  Lambda=-2.37728178D-02 EMin= 9.47122933D-03
 Linear search not attempted -- first point.
 Iteration  1 RMS(Cart)=  0.07107991 RMS(Int)=  0.00051214
 Iteration  2 RMS(Cart)=  0.00155612 RMS(Int)=  0.00000154
 Iteration  3 RMS(Cart)=  0.00000042 RMS(Int)=  0.00000154
 Variable       Old X    -DE/DX   Delta X   Delta X   Delta X     New X
                                 (Linear)    (Quad)   (Total)
    R1        2.53149   0.00410   0.00000   0.00688   0.00688   2.53836
    R2        2.04521   0.00185   0.00000   0.00487   0.00487   2.05008
    R3        2.05092  -0.00008   0.00000  -0.00021  -0.00021   2.05071
    R4        2.80871  -0.01120   0.00000  -0.03091  -0.03091   2.77780
    R5        2.05196   0.00143   0.00000   0.00380   0.00380   2.05575
    R6        2.54065   0.01039   0.00000   0.01773   0.01773   2.55838
    R7        2.05364   0.00077   0.00000   0.00206   0.00206   2.05571
    R8        2.79422  -0.01939   0.00000  -0.05225  -0.05225   2.74198
    R9        2.04766   0.00192   0.00000   0.00507   0.00507   2.05273
   R10        2.53184   0.02107   0.00000   0.03534   0.03534   2.56717
   R11        2.05546  -0.00021   0.00000  -0.00055  -0.00055   2.05491
   R12        2.79264  -0.01908   0.00000  -0.05129  -0.05129   2.74134
   R13        2.05541  -0.00012   0.00000  -0.00032  -0.00032   2.05509
   R14        2.53145   0.02171   0.00000   0.03637   0.03637   2.56782
   R15        2.05543  -0.00018   0.00000  -0.00048  -0.00048   2.05495
   R16        2.79260  -0.01910   0.00000  -0.05135  -0.05135   2.74125
   R17        2.05544  -0.00017   0.00000  -0.00044  -0.00044   2.05499
   R18        2.53145   0.02162   0.00000   0.03623   0.03623   2.56767
   R19        2.05543  -0.00017   0.00000  -0.00044  -0.00044   2.05499
   R20        2.79260  -0.01884   0.00000  -0.05063  -0.05063   2.74196
   R21        2.05544  -0.00017   0.00000  -0.00047  -0.00047   2.05497
   R22        2.53146   0.02093   0.00000   0.03508   0.03508   2.56654
   R23        2.05543  -0.00015   0.00000  -0.00040  -0.00040   2.05504
   R24        2.79262  -0.01787   0.00000  -0.04804  -0.04804   2.74458
   R25        2.05544  -0.00019   0.00000  -0.00052  -0.00052   2.05492
   R26        2.53138   0.01874   0.00000   0.03139   0.03139   2.56277
   R27        2.05546  -0.00013   0.00000  -0.00035  -0.00035   2.05511
   R28        2.79168  -0.01415   0.00000  -0.03797  -0.03797   2.75371
   R29        2.05547  -0.00026   0.00000  -0.00070  -0.00070   2.05478
   R30        2.52278   0.01188   0.00000   0.01956   0.01956   2.54234
   R31        2.05365   0.00063   0.00000   0.00167   0.00167   2.05532
   R32        2.05236  -0.00020   0.00000  -0.00052  -0.00052   2.05184
   R33        2.05076   0.00017   0.00000   0.00045   0.00045   2.05121
    A1        2.14514  -0.00032   0.00000  -0.00176  -0.00176   2.14338
    A2        2.08462   0.00328   0.00000   0.01785   0.01785   2.10247
    A3        2.05343  -0.00296   0.00000  -0.01609  -0.01609   2.03733
    A4        2.18339   0.00867   0.00000   0.03557   0.03557   2.21896
    A5        2.05666  -0.00180   0.00000  -0.00399  -0.00399   2.05267
    A6        2.04314  -0.00687   0.00000  -0.03158  -0.03158   2.01156
    A7        2.17907   0.00806   0.00000   0.03305   0.03305   2.21212
    A8        2.03007  -0.00389   0.00000  -0.01579  -0.01579   2.01428
    A9        2.07404  -0.00416   0.00000  -0.01726  -0.01726   2.05678
   A10        2.10498   0.01109   0.00000   0.04550   0.04550   2.15048
   A11        2.11396  -0.00321   0.00000  -0.01007  -0.01007   2.10390
   A12        2.06424  -0.00788   0.00000  -0.03543  -0.03543   2.02881
   A13        2.11171   0.01176   0.00000   0.04823   0.04823   2.15994
   A14        2.08213  -0.00928   0.00000  -0.04261  -0.04261   2.03952
   A15        2.08934  -0.00248   0.00000  -0.00562  -0.00562   2.08372
   A16        2.11092   0.01244   0.00000   0.05102   0.05102   2.16195
   A17        2.09083  -0.00288   0.00000  -0.00734  -0.00734   2.08349
   A18        2.08143  -0.00956   0.00000  -0.04368  -0.04368   2.03775
   A19        2.11076   0.01249   0.00000   0.05125   0.05125   2.16202
   A20        2.08182  -0.00957   0.00000  -0.04370  -0.04370   2.03812
   A21        2.09060  -0.00293   0.00000  -0.00756  -0.00756   2.08305
   A22        2.11092   0.01256   0.00000   0.05152   0.05152   2.16244
   A23        2.09056  -0.00296   0.00000  -0.00768  -0.00768   2.08288
   A24        2.08170  -0.00960   0.00000  -0.04384  -0.04384   2.03786
   A25        2.11076   0.01257   0.00000   0.05156   0.05156   2.16232
   A26        2.08180  -0.00961   0.00000  -0.04386  -0.04386   2.03794
   A27        2.09063  -0.00296   0.00000  -0.00770  -0.00770   2.08293
   A28        2.11092   0.01253   0.00000   0.05140   0.05140   2.16232
   A29        2.09056  -0.00294   0.00000  -0.00762  -0.00762   2.08294
   A30        2.08171  -0.00959   0.00000  -0.04378  -0.04378   2.03793
   A31        2.11078   0.01261   0.00000   0.05172   0.05172   2.16250
   A32        2.08179  -0.00962   0.00000  -0.04393  -0.04393   2.03786
   A33        2.09062  -0.00298   0.00000  -0.00780  -0.00780   2.08283
   A34        2.11091   0.01242   0.00000   0.05094   0.05094   2.16185
   A35        2.09057  -0.00289   0.00000  -0.00743  -0.00743   2.08314
   A36        2.08171  -0.00952   0.00000  -0.04351  -0.04351   2.03820
   A37        2.11083   0.01268   0.00000   0.05203   0.05203   2.16286
   A38        2.08191  -0.00965   0.00000  -0.04401  -0.04401   2.03789
   A39        2.09045  -0.00303   0.00000  -0.00802  -0.00802   2.08243
   A40        2.11050   0.01216   0.00000   0.04988   0.04988   2.16038
   A41        2.09126  -0.00254   0.00000  -0.00566  -0.00566   2.08560
   A42        2.08142  -0.00962   0.00000  -0.04422  -0.04422   2.03720
   A43        2.11396   0.01182   0.00000   0.04850   0.04850   2.16246
   A44        2.09298  -0.01139   0.00000  -0.05405  -0.05405   2.03893
   A45        2.07624  -0.00044   0.00000   0.00555   0.00555   2.08179
   A46        2.11474   0.00028   0.00000   0.00150   0.00150   2.11624
   A47        2.09386   0.00445   0.00000   0.02421   0.02421   2.11807
   A48        2.07459  -0.00472   0.00000  -0.02571  -0.02571   2.04888
    D1        0.00005  -0.00000   0.00000  -0.00003  -0.00003   0.00001
    D2        3.14151   0.00000   0.00000   0.00004   0.00004   3.14155
    D3       -3.14149  -0.00000   0.00000  -0.00007  -0.00007  -3.14157
    D4       -0.00003  -0.00000   0.00000  -0.00000  -0.00000  -0.00003
    D5       -0.00011  -0.00000   0.00000  -0.00005  -0.00005  -0.00016
    D6        3.14128   0.00000   0.00000   0.00009   0.00009   3.14137
    D7       -3.14157  -0.00001   0.00000  -0.00012  -0.00012   3.14149
    D8       -0.00018   0.00000   0.00000   0.00001   0.00001  -0.00017
    D9        3.14115   0.00001   0.00000   0.00020   0.00020   3.14135
   D10       -0.00008   0.00000   0.00000   0.00000   0.00000  -0.00008
   D11       -0.00024   0.00000   0.00000   0.00006   0.00006  -0.00017
   D12       -3.14146  -0.00001   0.00000  -0.00013  -0.00013   3.14159
   D13       -3.14067  -0.00002   0.00000  -0.00035  -0.00034  -3.14102
   D14        0.00036  -0.00000   0.00000  -0.00003  -0.00003   0.00033
   D15        0.00056  -0.00001   0.00000  -0.00015  -0.00015   0.00041
   D16        3.14159   0.00001   0.00000   0.00017   0.00017  -3.14143
   D17        3.14069   0.00002   0.00000   0.00039   0.00040   3.14109
   D18       -0.00021   0.00000   0.00000   0.00003   0.00003  -0.00017
   D19       -0.00034   0.00000   0.00000   0.00009   0.00009  -0.00025
   D20       -3.14124  -0.00001   0.00000  -0.00027  -0.00028  -3.14151
   D21       -3.13990  -0.00003   0.00000  -0.00060  -0.00060  -3.14050
   D22        0.00088  -0.00000   0.00000  -0.00015  -0.00015   0.00072
   D23        0.00100  -0.00001   0.00000  -0.00023  -0.00023   0.00077
   D24       -3.14141   0.00001   0.00000   0.00022   0.00022  -3.14119
   D25        3.14039   0.00002   0.00000   0.00051   0.00052   3.14091
   D26       -0.00032   0.00000   0.00000   0.00005   0.00005  -0.00027
   D27       -0.00038   0.00000   0.00000   0.00008   0.00008  -0.00030
   D28       -3.14109  -0.00002   0.00000  -0.00038  -0.00039  -3.14148
   D29       -3.13954  -0.00003   0.00000  -0.00073  -0.00072  -3.14026
   D30        0.00116  -0.00001   0.00000  -0.00024  -0.00024   0.00092
   D31        0.00118  -0.00001   0.00000  -0.00025  -0.00025   0.00093
   D32       -3.14131   0.00001   0.00000   0.00024   0.00023  -3.14108
   D33        3.14038   0.00002   0.00000   0.00052   0.00052   3.14090
   D34       -0.00037   0.00000   0.00000   0.00007   0.00007  -0.00030
   D35       -0.00032   0.00000   0.00000   0.00005   0.00005  -0.00027
   D36       -3.14107  -0.00002   0.00000  -0.00040  -0.00041  -3.14147
   D37       -3.13973  -0.00003   0.00000  -0.00066  -0.00065  -3.14038
   D38        0.00112  -0.00001   0.00000  -0.00026  -0.00026   0.00087
   D39        0.00103  -0.00001   0.00000  -0.00019  -0.00019   0.00083
   D40       -3.14131   0.00001   0.00000   0.00021   0.00020  -3.14111
   D41        3.14065   0.00002   0.00000   0.00040   0.00040   3.14105
   D42       -0.00033   0.00000   0.00000   0.00007   0.00007  -0.00026
   D43       -0.00020   0.00000   0.00000   0.00001   0.00001  -0.00018
   D44       -3.14117  -0.00001   0.00000  -0.00032  -0.00032  -3.14150
   D45       -3.14034  -0.00002   0.00000  -0.00044  -0.00043  -3.14078
   D46        0.00080  -0.00001   0.00000  -0.00020  -0.00020   0.00060
   D47        0.00064  -0.00000   0.00000  -0.00009  -0.00010   0.00054
   D48       -3.14141   0.00001   0.00000   0.00015   0.00014  -3.14127
   D49        3.14109   0.00001   0.00000   0.00021   0.00021   3.14130
   D50       -0.00021   0.00000   0.00000   0.00005   0.00005  -0.00016
   D51       -0.00005  -0.00000   0.00000  -0.00002  -0.00002  -0.00007
   D52       -3.14135  -0.00001   0.00000  -0.00018  -0.00019  -3.14153
   D53       -3.14109  -0.00001   0.00000  -0.00017  -0.00017  -3.14126
   D54        0.00035  -0.00000   0.00000  -0.00009  -0.00009   0.00025
   D55        0.00021   0.00000   0.00000  -0.00001  -0.00001   0.00020
   D56       -3.14154   0.00000   0.00000   0.00008   0.00007  -3.14147
   D57       -0.00005  -0.00000   0.00000  -0.00000  -0.00000  -0.00005
   D58        3.14147   0.00000   0.00000   0.00005   0.00005   3.14152
   D59       -3.14149  -0.00000   0.00000  -0.00008  -0.00008  -3.14157
   D60        0.00003  -0.00000   0.00000  -0.00002  -0.00002   0.00001
         Item               Value     Threshold  Converged?
 Maximum Force            0.021705     0.000450     NO 
 RMS     Force            0.007458     0.000300     NO 
 Maximum Displacement     0.244183     0.001800     NO 
 RMS     Displacement     0.069908     0.001200     NO 
 Predicted change in Energy=-1.286449D-02
 GradGradGradGradGradGradGradGradGradGradGradGradGradGradGradGradGradGrad

                          Input orientation:                          
 ---------------------------------------------------------------------
 Center     Atomic      Atomic             Coordinates (Angstroms)
 Number     Number       Type             X           Y           Z
 ---------------------------------------------------------------------
      1          6           0       10.781271   -3.475231   -1.342916
      2          6           0       11.684420   -3.222010   -2.304428
      3          6           0       13.061185   -3.730716   -2.384967
      4          6           0       13.674347   -4.551727   -1.500182
      5          6           0       15.042663   -5.008602   -1.656247
      6          6           0       15.668379   -5.832648   -0.775951
      7          6           0       17.035956   -6.291410   -0.929820
      8          6           0       17.661505   -7.116644   -0.049988
      9          6           0       19.028720   -7.576365   -0.203744
     10          6           0       19.653606   -8.402747    0.675359
     11          6           0       21.020906   -8.863248    0.521129
     12          6           0       21.645278   -9.690346    1.398999
     13          6           0       23.013746  -10.151309    1.243479
     14          6           0       23.638034  -10.977880    2.118812
     15          6           0       25.011220  -11.438779    1.959527
     16          6           0       25.632722  -12.258976    2.826114
     17          1           0       10.993069   -4.112031   -0.490547
     18          1           0       11.381660   -2.570917   -3.121649
     19          1           0       13.630083   -3.402554   -3.252173
     20          1           0       13.147244   -4.905984   -0.618919
     21          1           0       15.579806   -4.659824   -2.535048
     22          1           0       15.130965   -6.181389    0.102818
     23          1           0       17.573788   -5.942598   -1.808211
     24          1           0       17.123478   -7.465454    0.828316
     25          1           0       19.566972   -7.227197   -1.081765
     26          1           0       19.115332   -8.752007    1.553317
     27          1           0       21.559288   -8.513565   -0.356639
     28          1           0       21.107173  -10.040259    2.276767
     29          1           0       23.551738   -9.800942    0.365697
     30          1           0       23.102887  -11.330019    2.997406
     31          1           0       25.548063  -11.087426    1.081299
     32          1           0       25.127249  -12.628909    3.713008
     33          1           0       26.658259  -12.576860    2.666621
     34          1           0        9.788671   -3.039364   -1.391887
 ---------------------------------------------------------------------
                    Distance matrix (angstroms):
                    1          2          3          4          5
     1  C    0.000000
     2  C    1.343244   0.000000
     3  C    2.519752   1.469949   0.000000
     4  C    3.090868   2.524830   1.353835   0.000000
     5  C    4.539698   3.858736   2.467849   1.450992   0.000000
     6  C    5.455519   5.002360   3.715442   2.478192   1.358490
     7  C    6.871869   6.320578   4.947061   3.827822   2.479216
     8  C    7.891081   7.481726   6.170865   4.957750   3.725888
     9  C    9.281025   8.792726   7.426858   6.284783   4.959014
    10  C   10.347569   9.961281   8.640225   7.437398   6.182024
    11  C   11.719877  11.268421   9.906838   8.754818   7.438996
    12  C   12.812977  12.440797  11.114056   9.916975   8.651461
    13  C   14.173669  13.746143  12.387215  11.229754   9.919376
    14  C   15.282986  14.920036  13.589524  12.396275  11.124917
[...]
 .00548942,-0.00741296,-0.03704347,-0.07400155,0.07563789,-0.01014333,-
 0.00239633,0.01754693,-0.00305060,-0.00336096,-0.00227394,0.00023096,0
 .00009188,-0.00014620,0.00000066,0.00000048,0.00000002,-0.00000139,0.0
 0000188,-0.00000123,0.00000107,0.00000038,0.00000028,-0.00000091,0.000
 00026,0.00000170,0.00000050,0.00000090,0.00000082,-0.00000144,0.000000
 26,0.00000228,0.00000177,0.00000161,0.00000219,-0.00000431,0.00000475,
 0.00000412,0.00001134,-0.00000916,0.00001738,-0.00000215,0.00003012,0.
 00015068,-0.00019807,0.00012653,0.00030545,0.00283950,0.00206424,0.001
 33328,0.03715980,0.06834862,0.00002364,-0.00001046,-0.00000013,-0.0000
 2163,0.00002105,-0.00001927,0.00002084,-0.00001324,0.00000592,-0.00001
 893,-0.00001280,0.00003143,0.00001867,0.00001371,-0.00003340,-0.000011
 80,-0.00002453,0.00004091,0.00001028,0.00002219,-0.00005484,0.00001530
 ,-0.00003860,0.00007009,0.00002858,0.00004286,-0.00009881,-0.00003381,
 -0.00035014,0.00033724,-0.00161246,-0.00066485,0.00012621,0.00132574,0
 .00233418,-0.00150970,0.10922026,0.07602202,-0.22595653,0.01236782,0.0
 0776232,-0.01490168,0.00066239,-0.00365347,-0.00087447,-0.00035801,0.0
 0000468,0.00030975,-0.00000121,0.00000026,0.00000111,0.00000494,-0.000
 00477,0.00000475,-0.00000238,0.00000098,0.00000098,0.00000372,0.000001
 56,-0.00000376,0.00000022,0.00000054,0.00000066,0.00000491,0.00000214,
 -0.00000524,0.00000074,0.00000099,0.00000177,0.00000790,0.00000400,-0.
 00000547,0.00000854,-0.00000094,0.00000284,-0.00009457,0.00015099,-0.0
 0004594,0.00043982,-0.00030966,0.00044374,0.00074030,0.00132844,0.0015
 7845,-0.12130219,-0.08854741,0.23887542,-0.00000042,0.00000070,-0.0000
 0159,-0.00000187,-0.00000082,0.00000277,0.00000282,-0.00000347,0.00000
 293,-0.00000714,0.00000449,-0.00000552,0.00000957,-0.00000964,0.000008
 69,-0.00001461,0.00001723,-0.00000463,0.00002282,-0.00002261,0.0000158
 7,-0.00004710,0.00000037,-0.00002812,0.00006732,-0.00004391,0.00004774
 ,-0.00006379,0.00006625,0.00007397,0.00016441,-0.00006995,-0.00005859,
 0.00032742,-0.00091095,-0.00252710,0.01011903,0.00551666,-0.01177460,-
 0.12162182,-0.03782246,0.11029264,-0.01222257,-0.01008748,0.02511553,0
 .00123214,-0.00148181,0.00053932,0.00000014,0.00000023,0.00000006,-0.0
 0000036,0.00000049,-0.00000027,0.00000035,0.00000009,-0.00000009,-0.00
 000012,0.00000023,0.00000030,0.00000035,0.00000057,0.00000019,-0.00000
 015,0.00000044,0.00000046,-0.00000059,-0.00000218,-0.00000138,-0.00000
 149,0.00000187,0.00000040,0.00000627,0.00000078,0.00000664,-0.00003347
 ,0.00001135,0.00000733,-0.00009642,0.00006794,0.00017715,0.00003803,-0
 .00019500,0.00044414,-0.00004875,0.00410600,-0.00051367,0.12596539,-0.
 00000091,-0.00000060,-0.00000041,0.00000073,-0.00000045,0.00000105,-0.
 00000095,-0.00000049,-0.00000019,-0.00000126,-0.00000248,-0.00000294,0
 .00000021,-0.00000142,0.00000176,0.00000319,0.00001401,0.00000749,0.00
 000122,-0.00000783,0.00000008,-0.00003209,-0.00005416,-0.00003629,0.00
 001705,0.00001879,0.00001534,0.00005467,0.00015423,0.00006013,0.000219
 97,-0.00007649,-0.00017421,-0.00300054,-0.00319971,-0.00228658,-0.0100
 5927,-0.00228606,0.01743314,-0.03709544,-0.07396434,0.07718325,0.00554
 767,0.00545710,-0.00731113,-0.00033164,-0.00042087,-0.00150715,0.00000
 018,0.00000062,0.00000017,-0.00000015,0.00000057,-0.00000017,0.0000003
 1,0.00000038,-0.00000013,0.00000048,0.00000056,0.00000026,0.00000058,0
 .00000161,0.00000032,0.00000113,0.00000099,0.00000029,-0.00000221,-0.0
 0000416,-0.00000467,0.00000407,0.00000173,0.00000050,0.00000062,0.0000
 1710,0.00000211,0.00004037,-0.00000940,-0.00000186,0.00006741,0.000327
 68,-0.00000670,0.00077662,0.00013904,-0.00029330,0.00408847,0.00389796
 ,0.00555352,0.03734970,0.06819310,0.00000089,-0.00000143,0.00000040,0.
 00000039,0.00000203,-0.00000283,-0.00000094,0.00000139,-0.00000256,0.0
 0000335,-0.00000657,0.00000311,-0.00000648,0.00000796,-0.00000838,0.00
 001700,-0.00000135,0.00001155,-0.00002085,0.00001509,-0.00001740,0.000
 02187,-0.00005674,-0.00001722,-0.00004617,0.00005375,-0.00001798,0.000
 09181,0.00005283,0.00007641,-0.00050517,0.00000844,0.00020562,0.000691
 61,-0.00360298,-0.00079713,0.01221799,0.00762057,-0.01451816,0.1091727
 4,0.07764125,-0.22740119,0.00103172,0.00253875,-0.00158093,-0.00123237
 ,-0.00078256,0.00044686,0.00000014,0.00000014,0.00000050,0.00000071,-0
 .00000057,0.00000083,-0.00000044,0.00000001,0.00000068,-0.00000008,0.0
 0000042,0.00000033,0.00000018,0.00000033,0.00000144,-0.00000061,0.0000
 0073,0.00000090,-0.00000133,-0.00000469,-0.00000004,-0.00000299,0.0000
 0189,0.00000269,0.00000688,0.00000201,0.00001129,-0.00003738,0.0000164
 3,0.00000416,0.00017796,-0.00000703,0.00024962,-0.00105250,0.00031880,
 0.00043825,-0.00048666,0.00554248,0.00094457,-0.12111886,-0.09001456,0
 .23998912,-0.00001448,0.00000516,0.00000064,0.00001451,-0.00001243,0.0
 0000985,-0.00001511,0.00000977,-0.00000592,0.00001627,0.00000370,-0.00
 001629,-0.00001836,-0.00000232,0.00001448,0.00001961,0.00000491,-0.000
 02020,-0.00002267,-0.00000318,0.00001865,0.00002422,0.00000630,-0.0000
 2772,-0.00003265,-0.00000882,0.00002720,0.00004873,0.00000830,-0.00003
 378,-0.00002286,0.00001669,-0.00002459,-0.00002138,0.00021808,-0.00044
 999,0.00119682,-0.00182548,0.00102678,-0.01276450,-0.01002332,0.025380
 98,-0.12064554,-0.03885288,0.10957385,0.01044446,0.00661045,-0.0134764
 3,0.00000080,0.00000015,-0.00000043,-0.00000268,0.00000288,-0.00000256
 ,0.00000144,-0.00000018,-0.00000030,-0.00000194,-0.00000054,0.00000240
 ,0.00000003,0.00000032,0.00000007,-0.00000259,-0.00000071,0.00000336,-
 0.00000028,0.00000080,-0.00000004,-0.00000266,-0.00000104,0.00000412,-
 0.00000190,0.00000366,-0.00000177,0.00000358,-0.00000380,0.00000698,-0
 .00003382,0.00004071,-0.00003474,0.00028553,-0.00000891,-0.00009935,0.
 00002728,0.00078904,-0.00109375,-0.00417700,0.00280454,0.00061245,0.12
 510372,-0.00000783,0.00000261,-0.00000040,0.00000682,-0.00000698,0.000
 00610,-0.00000652,0.00000363,-0.00000243,0.00000568,0.00000358,-0.0000
 0992,-0.00000550,-0.00000490,0.00000941,0.00000347,0.00000625,-0.00001
 250,-0.00000258,-0.00000812,0.00001284,-0.00000284,0.00000886,-0.00001
 860,-0.00000069,-0.00002132,0.00001626,-0.00001816,0.00003718,-0.00002
 209,-0.00002521,-0.00005029,0.00006087,-0.00004467,-0.00006403,-0.0001
 8506,-0.00015509,-0.00052769,-0.00161073,0.00551462,0.00540580,-0.0071
 5536,-0.03814294,-0.07602619,0.07688425,-0.00984888,-0.00236467,0.0178
 8143,0.00000057,0.00000031,-0.00000012,-0.00000145,0.00000179,-0.00000
 137,0.00000094,0.00000010,0.00000006,-0.00000101,-0.00000003,0.0000015
 2,0.00000027,0.00000049,0.00000049,-0.00000132,0.00000012,0.00000220,0
 .00000030,0.00000089,0.00000092,-0.00000176,0.00000023,0.00000281,0.00
 000173,0.00000197,0.00000240,-0.00000451,0.00000425,0.00000457,0.00001
 093,-0.00000544,0.00001779,-0.00000316,0.00001490,0.00014238,-0.000212
 80,0.00012073,0.00028758,0.00270859,0.00180294,0.00114265,0.03759381,0
 .07056349,0.00002065,-0.00000859,-0.00000063,-0.00001979,0.00001823,-0
 .00001582,0.00001918,-0.00001270,0.00000685,-0.00001934,-0.00000867,0.
 00002501,0.00001938,0.00000741,-0.00002466,-0.00001798,-0.00001341,0.0
 0003154,0.00001773,0.00001321,-0.00003236,-0.00001364,-0.00002436,0.00
 004174,0.00001467,0.00002139,-0.00005323,0.00000698,-0.00003876,0.0000
 7072,0.00003996,0.00003447,-0.00009935,-0.00004526,-0.00035059,0.00036
 610,-0.00154623,-0.00055841,0.00019746,0.00144688,0.00263329,-0.001951
 79,0.10848030,0.07733150,-0.22917266,0.01187694,0.00751233,-0.01383813
 ,-0.00000108,0.00000014,0.00000093,0.00000412,-0.00000410,0.00000402,-
 0.00000202,0.00000076,0.00000062,0.00000312,0.00000123,-0.00000331,0.0
 0000014,0.00000046,0.00000012,0.00000430,0.00000181,-0.00000450,0.0000
 0072,0.00000061,0.00000021,0.00000523,0.00000236,-0.00000559,0.0000011
 9,0.00000119,0.00000166,0.00000808,0.00000412,-0.00000606,0.00001114,-
 0.00000097,0.00000506,-0.00010821,0.00014601,-0.00005070,0.00044945,-0
 .00034356,0.00046646,0.00076025,0.00108220,0.00150658,-0.11952309,-0.0
 9032536,0.24173152,0.00000459,-0.00000157,-0.00000105,-0.00000570,0.00
 000366,-0.00000236,0.00000551,-0.00000481,0.00000356,-0.00000773,0.000
 00155,0.00000291,0.00000865,-0.00000382,-0.00000024,-0.00001329,0.0000
 0234,0.00000087,0.00001437,-0.00000806,0.00000307,-0.00001919,0.000015
 22,0.00000369,0.00002654,-0.00002060,0.00000928,-0.00005244,-0.0000074
 9,-0.00002168,0.00007195,-0.00004102,0.00004142,-0.00004737,0.00008037
 ,0.00010983,0.00012281,-0.00004508,-0.00005108,0.00039079,-0.00141035,
 -0.00272076,0.01081843,0.00554868,-0.01239499,-0.11609137,-0.03829682,
 0.11120200,-0.00000025,0.00000016,0.00000023,0.00000070,-0.00000066,0.
 00000077,-0.00000018,0.00000034,-0.00000004,0.00000069,0.00000042,-0.0
 0000070,0.00000019,0.00000032,-0.00000028,0.00000099,0.00000065,-0.000
 00089,0.00000054,0.00000097,-0.00000017,0.00000117,0.00000101,-0.00000
 106,-0.00000035,-0.00000213,-0.00000226,0.00000027,0.00000262,-0.00000
 153,0.00000518,0.00000144,0.00000468,-0.00003305,0.00001143,0.00000535
 ,-0.00009496,0.00005568,0.00018738,0.00009420,-0.00024383,0.00049908,0
 .00039111,0.00456274,-0.00035672,0.11230197,-0.00000152,-0.00000003,-0
 .00000042,0.00000094,-0.00000162,0.00000114,-0.00000109,0.00000005,-0.
 00000031,0.00000059,0.00000150,-0.00000165,-0.00000031,-0.00000225,0.0
 0000201,-0.00000266,-0.00000196,-0.00000484,0.00000176,-0.00000341,0.0
 0000343,0.00000167,0.00001889,0.00000665,0.00000426,-0.00001246,0.0000
 0248,-0.00004119,-0.00005843,-0.00004607,0.00002353,0.00001250,0.00002
 352,0.00006111,0.00023814,0.00009294,0.00023633,-0.00007475,-0.0001392
 6,-0.00349809,-0.00397869,-0.00303002,-0.01000414,-0.00229449,0.017092
 41,-0.03651524,-0.07541685,0.08801074,0.00000018,0.00000037,0.00000009
 ,-0.00000025,0.00000057,-0.00000023,0.00000036,0.00000037,0.00000010,0
 .00000008,0.00000032,0.00000039,0.00000017,0.00000043,0.00000005,0.000
 00031,0.00000065,0.00000060,0.00000069,0.00000188,0.00000072,0.0000009
 0,0.00000113,0.00000072,-0.00000262,-0.00000487,-0.00000493,0.00000361
 ,0.00000202,0.00000115,0.00000060,0.00001477,0.00000172,0.00003635,-0.
 00000982,-0.00000254,0.00006302,0.00031729,-0.00000684,0.00074806,0.00
 014725,-0.00025100,0.00471671,0.00505048,0.00616398,0.03981614,0.07092
 130,-0.00000112,-0.00000039,0.00000039,0.00000183,-0.00000057,-0.00000
 076,-0.00000218,0.00000203,-0.00000236,0.00000438,-0.00000225,0.000001
 38,-0.00000564,0.00000422,-0.00000402,0.00000856,-0.00000799,0.0000007
 2,-0.00001206,0.00000962,-0.00000768,0.00002457,-0.00000188,0.00001132
 ,-0.00002902,0.00001815,-0.00001877,0.00003022,-0.00006729,-0.00002056
 ,-0.00005802,0.00006419,-0.00002494,0.00013949,0.00008081,0.00011112,-
 0.00048457,0.00003802,0.00017819,0.00049511,-0.00434526,-0.00099506,0.
 01156201,0.00729441,-0.01380959,0.10845771,0.08913309,-0.23883862,0.00
 000019,0.00000011,0.00000021,0.00000013,0.00000003,0.00000019,-0.00000
 007,0.00000011,0.00000045,-0.00000018,0.00000018,0.00000044,-0.0000000
 4,-0.00000005,0.00000064,-0.00000037,0.00000039,0.00000081,0.00000026,
 0.00000055,0.00000163,-0.00000089,0.00000065,0.00000152,-0.00000150,-0
 .00000524,-0.00000013,-0.00000306,0.00000178,0.00000344,0.00000597,0.0
 0000119,0.00001053,-0.00003303,0.00001316,0.00000394,0.00017607,-0.000
 00222,0.00023112,-0.00102879,0.00037387,0.00036246,-0.00059388,0.00626
 098,0.00171112,-0.11837644,-0.10082243,0.25163025,-0.00001589,0.000005
 36,0.00000129,0.00001669,-0.00001353,0.00001058,-0.00001629,0.00001168
 ,-0.00000807,0.00001857,0.00000128,-0.00001586,-0.00002001,0.00000081,
 0.00001147,0.00002554,0.00000432,-0.00001446,-0.00002650,0.00000296,0.
 00000939,0.00002609,-0.00001918,-0.00002981,-0.00004136,0.00001490,0.0
 0000872,0.00008338,0.00007714,0.00002422,-0.00012616,0.00001965,0.0000
 0275,-0.00005698,-0.00030620,-0.00040997,-0.00055952,0.00012064,0.0003
 0940,0.00220133,0.00407528,-0.00033202,-0.00972935,0.00238965,0.005082
 73,-0.31251413,0.08343725,0.04869954,0.00000094,0.00000017,-0.00000057
 ,-0.00000280,0.00000310,-0.00000285,0.00000141,-0.00000044,-0.00000011
 ,-0.00000208,-0.00000068,0.00000264,0.00000005,0.00000012,0.00000068,-
 0.00000277,-0.00000094,0.00000359,-0.00000068,-0.00000097,0.00000044,-
 0.00000298,-0.00000104,0.00000462,0.00000195,0.00000557,0.00000474,-0.
 00000267,-0.00000243,0.00000581,-0.00000676,-0.00001956,-0.00001297,0.
 00001047,-0.00000398,0.00001527,0.00001067,0.00007614,-0.00003146,0.00
 028761,-0.00021086,-0.00003439,0.00020442,-0.00192235,-0.00154038,-0.0
 0789547,0.00434986,-0.00027569,0.32813575,0.00001173,-0.00000509,-0.00
 000068,-0.00001146,0.00001061,-0.00000845,0.00001107,-0.00000796,0.000
 00443,-0.00001285,-0.00000615,0.00001221,0.00001240,0.00000300,-0.0000
 1217,-0.00000946,0.00000256,0.00002226,0.00001257,0.00000150,-0.000016
 94,-0.00003120,-0.00005231,-0.00000471,0.00002305,0.00001169,-0.000018
 79,0.00006745,0.00016956,0.00017454,0.00006495,-0.00004062,-0.00009195
 ,-0.00035361,-0.00109524,-0.00033361,0.00090472,0.00017362,-0.00048839
 ,0.00297729,0.00555319,0.00749829,0.01938121,-0.00119576,-0.00392677,0
 .08110729,-0.06318109,-0.00183362,-0.00000061,0.00000030,0.00000059,0.
 00000230,-0.00000214,0.00000223,-0.00000105,0.00000049,0.00000016,0.00
 000195,0.00000087,-0.00000188,0.00000041,0.00000112,0.00000022,0.00000
 275,0.00000121,-0.00000264,-0.00000034,-0.00000112,-0.00000167,0.00000
 389,0.00000220,-0.00000305,0.00000608,0.00001511,0.00000847,0.00000443
 ,0.00000229,-0.00000538,-0.00002081,-0.00004734,-0.00002975,0.00000826
 ,0.00002283,-0.00000191,-0.00000614,0.00009490,0.00008397,0.00004812,-
 0.00014740,-0.00023849,-0.00209271,-0.00395128,-0.00328691,-0.01001947
 ,0.00512944,0.00195789,-0.09209413,0.05853716,-0.00000853,0.00000333,-
 0.00000050,0.00000741,-0.00000716,0.00000678,-0.00000714,0.00000406,-0
 .00000229,0.00000590,0.00000331,-0.00001230,-0.00000639,-0.00000486,0.
 00001169,0.00000677,0.00001358,-0.00001203,-0.00000541,-0.00001089,0.0
 0001583,-0.00001130,-0.00001228,-0.00004209,-0.00000384,-0.00001365,0.
 00003237,0.00003916,0.00016843,0.00002634,-0.00006703,-0.00006341,0.00
 006616,-0.00033694,-0.00036348,-0.00068428,-0.00089838,0.00000557,0.00
 078396,0.00135929,0.00680657,0.00029778,-0.02109048,0.00677763,0.00702
 822,0.05228853,-0.00330146,-0.05905541,0.00000062,0.00000011,-0.000000
 11,-0.00000162,0.00000173,-0.00000140,0.00000084,-0.00000023,-0.000000
 02,-0.00000141,-0.00000023,0.00000168,0.00000023,0.00000041,0.00000066
 ,-0.00000209,-0.00000032,0.00000243,-0.00000052,-0.00000128,-0.0000000
 4,-0.00000298,0.00000006,0.00000360,0.00000396,0.00000880,0.00000705,-
 0.00000475,-0.00000106,0.00000523,-0.00001103,-0.00003054,-0.00002118,
 -0.00000359,0.00000581,0.00001829,0.00009528,0.00003214,0.00003737,-0.
 00043332,-0.00007533,0.00010648,-0.00127798,-0.00339423,-0.00090756,0.
 02185832,-0.00709455,-0.00053949,-0.05149030,0.00054320,0.05282616,-0.
 29305760,0.11362333,-0.00882539,-0.01562862,0.01002701,-0.00303643,0.0
 0143706,0.00073393,0.00462633,0.00022153,-0.00031586,0.00001008,-0.000
 01421,-0.00010436,-0.00010745,-0.00006492,0.00000721,-0.00002184,0.000
 06204,0.00002415,-0.00000831,-0.00003830,0.00000818,0.00001239,0.00002
 956,-0.00000884,-0.00003173,-0.00002673,0.00000061,0.00001528,0.000026
 39,0.00000588,-0.00002165,-0.00002098,-0.00000171,0.00001571,0.0000210
 8,0.00000416,-0.00002090,-0.00001993,-0.00000196,0.00001525,0.00002162
 ,0.00000256,-0.00001744,-0.00002016,0.00000632,0.00000250,-0.00169785,
 0.00077817,0.00160014,0.00012437,-0.00235043,-0.00131195,-0.00090469,0
 .00039567,0.00003713,0.00008612,-0.00010227,-0.00008107,0.00001927,0.0
 0000890,-0.00000396,0.00000406,0.00001693,0.00000919,-0.00000419,-0.00
 000158,0.00000802,0.00000201,0.00000542,0.00000609,-0.00000436,-0.0000
 0145,0.00000576,-0.00000070,-0.00000077,0.00000115,-0.00000360,-0.0000
 0129,0.00000466,-0.00000032,-0.00000014,0.00000096,-0.00000296,-0.0000
 0112,0.00000389,-0.00000022,-0.00000008,0.00000045,-0.00000211,-0.0000
 0118,0.00000333,0.00000072,-0.00000016,0.00000003,-0.00000244,0.000001
 90,-0.00000127,0.30945907,0.11588975,-0.08793395,0.01732617,-0.0069956
 2,0.00611767,0.00124257,0.00173110,0.00669130,0.00489350,-0.00015230,-
 0.00060452,0.00020288,-0.00020946,-0.00007880,-0.00042417,-0.00000113,
 -0.00009764,0.00002482,-0.00000743,0.00009862,0.00001893,0.00001973,-0
 .00001943,0.00001960,-0.00002940,-0.00001524,-0.00002333,0.00001081,-0
 .00000917,0.00000581,-0.00000838,0.00000877,0.00000164,0.00000627,-0.0
 0000373,0.00000146,-0.00000634,0.00000052,0.00000025,0.00000395,-0.000
 00168,-0.00000070,-0.00000399,0.00000064,0.00000183,0.00000280,-0.0000
 0181,-0.00000009,0.01517069,-0.00345084,-0.00001203,-0.00233645,-0.004
 32286,-0.00373652,-0.00024788,0.00015438,0.00010658,-0.00017624,0.0000
 0121,-0.00034190,0.00007772,-0.00000056,0.00000548,0.00000723,0.000048
 03,0.00001400,0.00000306,0.00000272,0.00000109,0.00000605,0.00001683,0
 .00000864,0.00000069,0.00000107,-0.00000017,-0.00000013,-0.00000016,-0
 .00000083,0.00000050,0.00000061,-0.00000028,0.00000028,0.00000067,0.00
 000013,0.00000043,0.00000047,-0.00000028,0.00000011,0.00000023,0.00000
 003,0.00000032,0.00000036,-0.00000029,-0.00000003,0.00000028,0.0000001
 6,0.00000041,-0.00000013,0.00000022,-0.12275714,0.08339614,-0.01231358
 ,0.01875302,-0.05039206,0.02316449,-0.00947303,0.00406203,0.00309258,0
 .00551961,0.00013464,-0.00024089,0.00030599,-0.00085513,0.00005411,-0.
 00049060,0.00028124,-0.00000888,0.00001951,-0.00010652,0.00004025,-0.0
 0000092,0.00008403,-0.00000534,0.00002687,-0.00003666,-0.00000011,-0.0
 0003630,0.00001354,-0.00000039,0.00001223,-0.00001957,0.00000028,-0.00
 000735,0.00001755,0.00000345,0.00000649,-0.00001239,-0.00000475,-0.000
 00638,0.00001090,0.00000618,0.00000302,-0.00000906,-0.00000739,-0.0000
 0230,0.00000839,0.00000795,-0.00000232,-0.00000216,-0.02055447,0.00904
 978,0.00175718,-0.00133321,-0.00372831,-0.00112740,0.00102691,-0.00029
 829,-0.00006531,0.00003309,-0.00038843,0.00028488,-0.00010988,0.000048
 88,0.00002877,0.00002416,0.00000792,0.00003270,0.00000089,0.00000401,-
 0.00000207,0.00000511,0.00000905,0.00000777,0.00000248,0.00000118,-0.0
 0000213,0.00000016,-0.00000043,-0.00000020,0.00000191,0.00000085,-0.00
 000188,0.00000031,0.00000039,0.00000006,0.00000150,0.00000070,-0.00000
 157,0.00000016,0.00000015,-0.00000004,0.00000102,0.00000066,-0.0000013
 6,-0.00000018,0.00000024,0.00000011,0.00000103,-0.00000073,0.00000065,
 0.00711106,-0.01933518,0.04591105\\-0.00000199,0.00000377,-0.00000427,
 -0.00000633,0.00000373,-0.00000171,-0.00000151,-0.00000162,0.00000363,
 0.00000677,-0.00000402,0.00000187,-0.00000025,-0.00000165,0.00000287,-
 0.00000015,0.00000126,-0.00000173,0.00000242,-0.00000315,0.00000352,-0
 .00000309,0.00000330,-0.00000295,0.00000316,-0.00000310,0.00000298,-0.
 00000135,0.00000232,-0.00000254,0.00000195,-0.00000207,0.00000211,0.00
 000216,0.00000090,-0.00000261,-0.00000067,-0.00000083,0.00000179,0.000
 00339,-0.00000014,-0.00000187,-0.00000004,0.00000039,-0.00000051,-0.00
 000746,0.00000756,-0.00000690,0.00000133,-0.00000061,0.00000017,0.0000
 0117,-0.00000029,-0.00000052,0.00000171,0.,-0.00000103,-0.00000332,0.0
 0000178,-0.00000090,0.00000183,-0.00000041,-0.00000064,-0.00000179,0.0
 0000050,0.00000021,0.00000164,-0.00000021,-0.00000088,-0.00000171,0.00
 000014,0.00000066,0.00000169,-0.00000037,-0.00000069,-0.00000188,0.000
 00016,0.00000075,0.00000205,-0.00000071,-0.00000036,-0.00000207,0.,0.0
 0000119,0.00000235,-0.00000058,-0.00000067,-0.00000236,0.00000021,0.00
 000110,0.00000153,-0.00000113,0.00000072,0.00000127,-0.00000172,0.0000
 0181,-0.00000013,-0.00000144,0.00000230,-0.00000030,-0.00000198,0.0000
 0311\\\@


 Sometimes the fool who rushes in gets the job done.
                                    -- Al Bernstein
 Job cpu time:       0 days  0 hours 33 minutes  6.5 seconds.
 Elapsed time:       0 days  0 hours 33 minutes  6.5 seconds.
 File lengths (MBytes):  RWF=    394 Int=      0 D2E=      0 Chk=     10 Scr=      1
 Normal termination of Gaussian 16 at Fri Oct 27 17:40:06 2023.
