 Entering Gaussian System, Link 0=g16
 Input=./com/8.com
 Output=./log/8.log
 Initial command:
 /home/shohei/gaussian/g16/l1.exe "/home/shohei/gaussian/scratch/Gau-14041.inp" -scrdir="/home/shohei/gaussian/scratch/"
 Entering Link 1 = /home/shohei/gaussian/g16/l1.exe PID=     14043.
  
 Copyright (c) 1988-2017, Gaussian, Inc.  All Rights Reserved.
  
 This is part of the Gaussian(R) 16 program.  It is based on
 the Gaussian(R) 09 system (copyright 2009, Gaussian, Inc.),
 the Gaussian(R) 03 system (copyright 2003, Gaussian, Inc.),
 the Gaussian(R) 98 system (copyright 1998, Gaussian, Inc.),
 the Gaussian(R) 94 system (copyright 1995, Gaussian, Inc.),
 the Gaussian 92(TM) system (copyright 1992, Gaussian, Inc.),
 the Gaussian 90(TM) system (copyright 1990, Gaussian, Inc.),
 the Gaussian 88(TM) system (copyright 1988, Gaussian, Inc.),
 the Gaussian 86(TM) system (copyright 1986, Carnegie Mellon
 University), and the Gaussian 82(TM) system (copyright 1983,
 Carnegie Mellon University). Gaussian is a federally registered
 trademark of Gaussian, Inc.
  
 This software contains proprietary and confidential information,
 including trade secrets, belonging to Gaussian, Inc.
  
 This software is provided under written license and may be
 used, copied, transmitted, or stored only in accord with that
 written license.
  
 The following legend is applicable only to US Government
 contracts under FAR:
  
                    RESTRICTED RIGHTS LEGEND
  
 Use, reproduction and disclosure by the US Government is
 subject to restrictions as set forth in subparagraphs (a)
 and (c) of the Commercial Computer Software - Restricted
 Rights clause in FAR 52.227-19.
  
 Gaussian, Inc.
 340 Quinnipiac St., Bldg. 40, Wallingford CT 06492
  
  
 ---------------------------------------------------------------
 Warning -- This program may not be used in any manner that
 competes with the business of Gaussian, Inc. or will provide
 assistance to any competitor of Gaussian, Inc.  The licensee
 of this program is prohibited from giving any competitor of
 Gaussian, Inc. access to this program.  By using this program,
 the user acknowledges that Gaussian, Inc. is engaged in the
 business of creating and licensing software in the field of
 computational chemistry and represents and warrants to the
 licensee that it is not a competitor of Gaussian, Inc. and that
 it will not use this program in any manner prohibited above.
 ---------------------------------------------------------------
  

 Cite this work as:
 Gaussian 16, Revision B.01,
 M. J. Frisch, G. W. Trucks, H. B. Schlegel, G. E. Scuseria, 
 M. A. Robb, J. R. Cheeseman, G. Scalmani, V. Barone, 
 G. A. Petersson, H. Nakatsuji, X. Li, M. Caricato, A. V. Marenich, 
 J. Bloino, B. G. Janesko, R. Gomperts, B. Mennucci, H. P. Hratchian, 
 J. V. Ortiz, A. F. Izmaylov, J. L. Sonnenberg, D. Williams-Young, 
 F. Ding, F. Lipparini, F. Egidi, J. Goings, B. Peng, A. Petrone, 
 T. Henderson, D. Ranasinghe, V. G. Zakrzewski, J. Gao, N. Rega, 
 G. Zheng, W. Liang, M. Hada, M. Ehara, K. Toyota, R. Fukuda, 
 J. Hasegawa, M. Ishida, T. Nakajima, Y. Honda, O. Kitao, H. Nakai, 
 T. Vreven, K. Throssell, J. A. Montgomery, Jr., J. E. Peralta, 
 F. Ogliaro, M. J. Bearpark, J. J. Heyd, E. N. Brothers, K. N. Kudin, 
 V. N. Staroverov, T. A. Keith, R. Kobayashi, J. Normand, 
 K. Raghavachari, A. P. Rendell, J. C. Burant, S. S. Iyengar, 
 J. Tomasi, M. Cossi, J. M. Millam, M. Klene, C. Adamo, R. Cammi, 
 J. W. Ochterski, R. L. Martin, K. Morokuma, O. Farkas, 
 J. B. Foresman, and D. J. Fox, Gaussian, Inc., Wallingford CT, 2016.
 
 ******************************************
 Gaussian 16:  EM64L-G16RevB.01 20-Dec-2017
                 9-Nov-2023 
 ******************************************
 %chk=checkpoint.chk
 %nprocshared=4
 Will use up to    4 processors via shared memory.
 ---------------------------
 # B3LYP/6-31G(d,p) OPT FREQ
 ---------------------------
 1/18=20,19=15,26=3,38=1/1,3;
 2/9=110,12=2,17=6,18=5,40=1/2;
 3/5=1,6=6,7=101,11=2,25=1,30=1,71=1,74=-5/1,2,3;
 4//1;
 5/5=2,38=5/2;
 6/7=2,8=2,9=2,10=2,28=1/1;
 7//1,2,3,16;
 1/18=20,19=15,26=3/3(2);
 2/9=110/2;
 99//99;
 2/9=110/2;
 3/5=1,6=6,7=101,11=2,25=1,30=1,71=1,74=-5/1,2,3;
 4/5=5,16=3,69=1/1;
 5/5=2,38=5/2;
 7//1,2,3,16;
 1/18=20,19=15,26=3/3(-5);
 2/9=110/2;
 6/7=2,8=2,9=2,10=2,19=2,28=1/1;
 99/9=1/99;
 -----
 8poly
 -----
 Symbolic Z-matrix:
 Charge =  0 Multiplicity = 1
 C                    -2.30486   1.1201    0.0119 
 C                    -1.09168   1.67574  -0.03007 
 C                     0.12974   0.84606   0.01462 
 C                     1.34552   1.40695  -0.02783 
 C                     2.56662   0.57594   0.01684 
 C                     3.78345   1.13467  -0.02579 
 C                     5.00262   0.30081   0.01884 
 C                     6.22094   0.85618  -0.02409 
 C                     7.43763   0.01863   0.02049 
 C                     8.65763   0.57018  -0.02283 
 C                     9.8718   -0.27109   0.02167 
 C                     11.09331   0.27702  -0.02203 
 C                     12.30551  -0.56718   0.0224 
 C                     13.528   -0.02143  -0.02159 
 C                     14.73834  -0.86742   0.02281 
 C                     15.95904  -0.32872  -0.02091 
 H                    -3.18989   1.74718  -0.02212 
 H                    -2.42775   0.04314   0.08005 
 H                    -1.0102    2.75726  -0.09827 
 H                     0.03521  -0.23539   0.08293 
 H                     1.43971   2.48839  -0.09618 
 H                     2.47115  -0.5054    0.08526 
 H                     3.87997   2.21587  -0.09431 
 H                     4.90442  -0.78027   0.08747 
 H                     6.3205    1.9371   -0.09284 
 H                     7.33616  -1.06213   0.08937 
 H                     8.76048   1.65077  -0.09184 
 H                     9.76724  -1.35154   0.09082 
 H                     11.19897   1.35732  -0.09129 
 H                     12.19884  -1.64742   0.09176 
 H                     13.63619   1.05863  -0.09102 
 H                     14.64215  -1.9477    0.09221 
 H                     16.09667   0.74632  -0.09032 
 H                     16.8375  -0.97209   0.01273 
 

 GradGradGradGradGradGradGradGradGradGradGradGradGradGradGradGradGradGrad
 Berny optimization.
 Initialization pass.
                           ----------------------------
                           !    Initial Parameters    !
                           ! (Angstroms and Degrees)  !
 --------------------------                            --------------------------
 ! Name  Definition              Value          Derivative Info.                !
 --------------------------------------------------------------------------------
 ! R1    R(1,2)                  1.335          estimate D2E/DX2                !
 ! R2    R(1,17)                 1.0852         estimate D2E/DX2                !
 ! R3    R(1,18)                 1.0861         estimate D2E/DX2                !
 ! R4    R(2,3)                  1.4772         estimate D2E/DX2                !
 ! R5    R(2,19)                 1.0867         estimate D2E/DX2                !
 ! R6    R(3,4)                  1.3396         estimate D2E/DX2                !
 ! R7    R(3,20)                 1.0877         estimate D2E/DX2                !
 ! R8    R(4,5)                  1.4777         estimate D2E/DX2                !
 ! R9    R(4,21)                 1.0877         estimate D2E/DX2                !
 ! R10   R(5,6)                  1.3396         estimate D2E/DX2                !
 ! R11   R(5,22)                 1.0877         estimate D2E/DX2                !
 ! R12   R(6,7)                  1.4777         estimate D2E/DX2                !
 ! R13   R(6,23)                 1.0877         estimate D2E/DX2                !
 ! R14   R(7,8)                  1.3396         estimate D2E/DX2                !
 ! R15   R(7,24)                 1.0877         estimate D2E/DX2                !
 ! R16   R(8,9)                  1.4778         estimate D2E/DX2                !
 ! R17   R(8,25)                 1.0877         estimate D2E/DX2                !
 ! R18   R(9,10)                 1.3396         estimate D2E/DX2                !
 ! R19   R(9,26)                 1.0877         estimate D2E/DX2                !
 ! R20   R(10,11)                1.4778         estimate D2E/DX2                !
 ! R21   R(10,27)                1.0877         estimate D2E/DX2                !
 ! R22   R(11,12)                1.3396         estimate D2E/DX2                !
 ! R23   R(11,28)                1.0877         estimate D2E/DX2                !
 ! R24   R(12,13)                1.4779         estimate D2E/DX2                !
 ! R25   R(12,29)                1.0877         estimate D2E/DX2                !
 ! R26   R(13,14)                1.3395         estimate D2E/DX2                !
 ! R27   R(13,30)                1.0877         estimate D2E/DX2                !
 ! R28   R(14,15)                1.4774         estimate D2E/DX2                !
 ! R29   R(14,31)                1.0877         estimate D2E/DX2                !
 ! R30   R(15,16)                1.335          estimate D2E/DX2                !
 ! R31   R(15,32)                1.0868         estimate D2E/DX2                !
 ! R32   R(16,33)                1.086          estimate D2E/DX2                !
 ! R33   R(16,34)                1.0894         estimate D2E/DX2                !
 ! A1    A(2,1,17)             119.9748         estimate D2E/DX2                !
 ! A2    A(2,1,18)             121.1642         estimate D2E/DX2                !
 ! A3    A(17,1,18)            118.8609         estimate D2E/DX2                !
 ! A4    A(1,2,3)              121.1079         estimate D2E/DX2                !
 ! A5    A(1,2,19)             118.9675         estimate D2E/DX2                !
 ! A6    A(3,2,19)             119.9245         estimate D2E/DX2                !
 ! A7    A(2,3,4)              120.9494         estimate D2E/DX2                !
 ! A8    A(2,3,20)             119.2388         estimate D2E/DX2                !
 ! A9    A(4,3,20)             119.8118         estimate D2E/DX2                !
 ! A10   A(3,4,5)              120.9            estimate D2E/DX2                !
 ! A11   A(3,4,21)             119.7943         estimate D2E/DX2                !
 ! A12   A(5,4,21)             119.3057         estimate D2E/DX2                !
 ! A13   A(4,5,6)              121.0022         estimate D2E/DX2                !
 ! A14   A(4,5,22)             119.2383         estimate D2E/DX2                !
 ! A15   A(6,5,22)             119.7595         estimate D2E/DX2                !
 ! A16   A(5,6,7)              120.8691         estimate D2E/DX2                !
 ! A17   A(5,6,23)             119.8154         estimate D2E/DX2                !
 ! A18   A(7,6,23)             119.3155         estimate D2E/DX2                !
 ! A19   A(6,7,8)              121.025          estimate D2E/DX2                !
 ! A20   A(6,7,24)             119.2271         estimate D2E/DX2                !
 ! A21   A(8,7,24)             119.7479         estimate D2E/DX2                !
 ! A22   A(7,8,9)              120.8529         estimate D2E/DX2                !
 ! A23   A(7,8,25)             119.8206         estimate D2E/DX2                !
 ! A24   A(9,8,25)             119.3265         estimate D2E/DX2                !
 ! A25   A(8,9,10)             121.0306         estimate D2E/DX2                !
 ! A26   A(8,9,26)             119.226          estimate D2E/DX2                !
 ! A27   A(10,9,26)            119.7435         estimate D2E/DX2                !
 ! A28   A(9,10,11)            120.8569         estimate D2E/DX2                !
 ! A29   A(9,10,27)            119.8168         estimate D2E/DX2                !
 ! A30   A(11,10,27)           119.3263         estimate D2E/DX2                !
 ! A31   A(10,11,12)           121.0163         estimate D2E/DX2                !
 ! A32   A(10,11,28)           119.2359         estimate D2E/DX2                !
 ! A33   A(12,11,28)           119.7477         estimate D2E/DX2                !
 ! A34   A(11,12,13)           120.88           estimate D2E/DX2                !
 ! A35   A(11,12,29)           119.8059         estimate D2E/DX2                !
 ! A36   A(13,12,29)           119.3141         estimate D2E/DX2                !
 ! A37   A(12,13,14)           120.9889         estimate D2E/DX2                !
 ! A38   A(12,13,30)           119.2608         estimate D2E/DX2                !
 ! A39   A(14,13,30)           119.7503         estimate D2E/DX2                !
 ! A40   A(13,14,15)           120.8908         estimate D2E/DX2                !
 ! A41   A(13,14,31)           119.8308         estimate D2E/DX2                !
 ! A42   A(15,14,31)           119.2784         estimate D2E/DX2                !
 ! A43   A(14,15,16)           121.1352         estimate D2E/DX2                !
 ! A44   A(14,15,32)           119.909          estimate D2E/DX2                !
 ! A45   A(16,15,32)           118.9559         estimate D2E/DX2                !
 ! A46   A(15,16,33)           121.1589         estimate D2E/DX2                !
 ! A47   A(15,16,34)           119.8693         estimate D2E/DX2                !
 ! A48   A(33,16,34)           118.9718         estimate D2E/DX2                !
 ! D1    D(17,1,2,3)          -179.9989         estimate D2E/DX2                !
 ! D2    D(17,1,2,19)           -0.0004         estimate D2E/DX2                !
 ! D3    D(18,1,2,3)             0.0003         estimate D2E/DX2                !
 ! D4    D(18,1,2,19)          179.9988         estimate D2E/DX2                !
 ! D5    D(1,2,3,4)            179.9936         estimate D2E/DX2                !
 ! D6    D(1,2,3,20)            -0.0031         estimate D2E/DX2                !
 ! D7    D(19,2,3,4)            -0.0048         estimate D2E/DX2                !
 ! D8    D(19,2,3,20)          179.9984         estimate D2E/DX2                !
 ! D9    D(2,3,4,5)           -179.9951         estimate D2E/DX2                !
 ! D10   D(2,3,4,21)             0.0001         estimate D2E/DX2                !
 ! D11   D(20,3,4,5)             0.0017         estimate D2E/DX2                !
 ! D12   D(20,3,4,21)          179.9969         estimate D2E/DX2                !
 ! D13   D(3,4,5,6)            179.9842         estimate D2E/DX2                !
 ! D14   D(3,4,5,22)            -0.0089         estimate D2E/DX2                !
 ! D15   D(21,4,5,6)            -0.011          estimate D2E/DX2                !
 ! D16   D(21,4,5,22)          179.9958         estimate D2E/DX2                !
 ! D17   D(4,5,6,7)           -179.9901         estimate D2E/DX2                !
 ! D18   D(4,5,6,23)             0.0014         estimate D2E/DX2                !
 ! D19   D(22,5,6,7)             0.003          estimate D2E/DX2                !
 ! D20   D(22,5,6,23)          179.9945         estimate D2E/DX2                !
 ! D21   D(5,6,7,8)            179.9749         estimate D2E/DX2                !
 ! D22   D(5,6,7,24)            -0.015          estimate D2E/DX2                !
 ! D23   D(23,6,7,8)            -0.0166         estimate D2E/DX2                !
 ! D24   D(23,6,7,24)          179.9935         estimate D2E/DX2                !
 ! D25   D(6,7,8,9)           -179.9862         estimate D2E/DX2                !
 ! D26   D(6,7,8,25)             0.0027         estimate D2E/DX2                !
 ! D27   D(24,7,8,9)             0.0036         estimate D2E/DX2                !
 ! D28   D(24,7,8,25)          179.9926         estimate D2E/DX2                !
 ! D29   D(7,8,9,10)           179.9695         estimate D2E/DX2                !
 ! D30   D(7,8,9,26)            -0.019          estimate D2E/DX2                !
 ! D31   D(25,8,9,10)           -0.0195         estimate D2E/DX2                !
 ! D32   D(25,8,9,26)          179.992          estimate D2E/DX2                !
 ! D33   D(8,9,10,11)         -179.9851         estimate D2E/DX2                !
 ! D34   D(8,9,10,27)            0.0036         estimate D2E/DX2                !
 ! D35   D(26,9,10,11)           0.0033         estimate D2E/DX2                !
 ! D36   D(26,9,10,27)         179.9921         estimate D2E/DX2                !
 ! D37   D(9,10,11,12)         179.9707         estimate D2E/DX2                !
 ! D38   D(9,10,11,28)          -0.0191         estimate D2E/DX2                !
 ! D39   D(27,10,11,12)         -0.0181         estimate D2E/DX2                !
 ! D40   D(27,10,11,28)        179.9921         estimate D2E/DX2                !
 ! D41   D(10,11,12,13)       -179.9877         estimate D2E/DX2                !
 ! D42   D(10,11,12,29)          0.0035         estimate D2E/DX2                !
 ! D43   D(28,11,12,13)          0.0021         estimate D2E/DX2                !
 ! D44   D(28,11,12,29)        179.9933         estimate D2E/DX2                !
 ! D45   D(11,12,13,14)        179.9787         estimate D2E/DX2                !
 ! D46   D(11,12,13,30)         -0.0148         estimate D2E/DX2                !
 ! D47   D(29,12,13,14)         -0.0125         estimate D2E/DX2                !
 ! D48   D(29,12,13,30)        179.994          estimate D2E/DX2                !
 ! D49   D(12,13,14,15)       -179.993          estimate D2E/DX2                !
 ! D50   D(12,13,14,31)          0.0024         estimate D2E/DX2                !
 ! D51   D(30,13,14,15)          0.0005         estimate D2E/DX2                !
 ! D52   D(30,13,14,31)        179.9958         estimate D2E/DX2                !
 ! D53   D(13,14,15,16)        179.9903         estimate D2E/DX2                !
 ! D54   D(13,14,15,32)         -0.0073         estimate D2E/DX2                !
 ! D55   D(31,14,15,16)         -0.005          estimate D2E/DX2                !
 ! D56   D(31,14,15,32)        179.9973         estimate D2E/DX2                !
 ! D57   D(14,15,16,33)          0.0005         estimate D2E/DX2                !
 ! D58   D(14,15,16,34)       -179.9723         estimate D2E/DX2                !
 ! D59   D(32,15,16,33)        179.9982         estimate D2E/DX2                !
 ! D60   D(32,15,16,34)          0.0254         estimate D2E/DX2                !
 --------------------------------------------------------------------------------
 Trust Radius=3.00D-01 FncErr=1.00D-07 GrdErr=1.00D-06 EigMax=2.50D+02 EigMin=1.00D-04
 Number of steps in this run=    151 maximum allowed number of steps=    204.
 GradGradGradGradGradGradGradGradGradGradGradGradGradGradGradGradGradGrad

                          Input orientation:                          
 ---------------------------------------------------------------------
 Center     Atomic      Atomic             Coordinates (Angstroms)
 Number     Number       Type             X           Y           Z
 ---------------------------------------------------------------------
      1          6           0       -2.304864    1.120102    0.011904
      2          6           0       -1.091683    1.675742   -0.030070
      3          6           0        0.129736    0.846059    0.014621
      4          6           0        1.345519    1.406955   -0.027825
      5          6           0        2.566624    0.575940    0.016841
      6          6           0        3.783446    1.134669   -0.025793
      7          6           0        5.002622    0.300806    0.018845
      8          6           0        6.220936    0.856184   -0.024092
      9          6           0        7.437627    0.018630    0.020489
     10          6           0        8.657627    0.570182   -0.022831
     11          6           0        9.871804   -0.271095    0.021673
     12          6           0       11.093313    0.277018   -0.022030
     13          6           0       12.305510   -0.567177    0.022400
     14          6           0       13.528005   -0.021434   -0.021589
     15          6           0       14.738343   -0.867425    0.022814
     16          6           0       15.959039   -0.328724   -0.020907
     17          1           0       -3.189891    1.747184   -0.022118
     18          1           0       -2.427749    0.043144    0.080048
     19          1           0       -1.010203    2.757257   -0.098274
     20          1           0        0.035206   -0.235394    0.082926
     21          1           0        1.439714    2.488391   -0.096179
     22          1           0        2.471154   -0.505399    0.085265
     23          1           0        3.879970    2.215875   -0.094307
     24          1           0        4.904424   -0.780274    0.087469
     25          1           0        6.320504    1.937099   -0.092838
     26          1           0        7.336156   -1.062130    0.089371
     27          1           0        8.760480    1.650772   -0.091843
     28          1           0        9.767241   -1.351544    0.090819
     29          1           0       11.198972    1.357323   -0.091287
     30          1           0       12.198841   -1.647424    0.091760
     31          1           0       13.636192    1.058629   -0.091018
     32          1           0       14.642154   -1.947704    0.092208
     33          1           0       16.096675    0.746322   -0.090321
     34          1           0       16.837504   -0.972092    0.012728
 ---------------------------------------------------------------------
                    Distance matrix (angstroms):
                    1          2          3          4          5
     1  C    0.000000
     2  C    1.335031   0.000000
     3  C    2.449976   1.477238   0.000000
     4  C    3.661852   2.451979   1.339603   0.000000
     5  C    4.901788   3.820336   2.451814   1.477727   0.000000
     6  C    6.088444   4.905064   3.665314   2.453086   1.339646
     7  C    7.353274   6.247671   4.903299   3.821014   2.451488
     8  C    8.529959   7.358403   6.091332   4.906429   3.665271
     9  C    9.804562   8.688941   7.354587   6.248484   4.902783
    10  C   10.976330   9.811797   8.532435   7.359833   6.091135
    11  C   12.255887  11.135120   9.805916   8.689985   7.354125
    12  C   13.424719  12.265016  10.978396   9.813067   8.532016
    13  C   14.707483  13.583748  12.257519  11.136477   9.805746
    14  C   15.874002  14.717871  13.426372  12.265940  10.977714
    15  C   17.158709  16.033097  14.708756  13.584664  12.257002
    16  C   18.321307  17.168141  15.872877  14.716235  13.422989
    17  H    1.085202   2.099440   3.439956   4.548157   5.874589
    18  H    1.086086   2.112481   2.681358   4.013622   5.023109
    19  H    2.090111   1.086722   2.228201   2.716193   4.191072
    20  H    2.705243   2.221506   1.087724   2.103924   2.659080
    21  H    3.988203   2.659462   2.103705   1.087680   2.222648
    22  H    5.045590   4.179052   2.704379   2.221922   1.087699
    23  H    6.282051   5.001319   3.994060   2.661243   2.103953
    24  H    7.455935   6.480673   5.044593   4.178884   2.703630
    25  H    8.664607   7.417058   6.287092   5.003574   3.994546
    26  H    9.885211   8.862205   7.455150   6.480574   5.043508
    27  H   11.078547   9.852388   8.668832   7.419245   6.287363
    28  H   12.322783  11.273655   9.885180   8.862776   7.454499
    29  H   13.506313  12.294931  11.081543   9.853782   8.668315
    30  H   14.765602  13.700229  12.324232  11.275554   9.885776
    31  H   15.941507  14.740924  13.508542  12.295770  11.080612
    32  H   17.222639  16.146143  14.779087  13.713812  12.336648
    33  H   18.405618  17.213573  15.967596  14.766074  13.531548
    34  H   19.256363  18.123702  16.806404  15.673644  14.354597
                    6          7          8          9         10
     6  C    0.000000
     7  C    1.477738   0.000000
     8  C    2.453347   1.339618   0.000000
     9  C    3.821089   2.451300   1.477776   0.000000
    10  C    4.906760   3.665155   2.453419   1.339585   0.000000
    11  C    6.248722   4.902653   3.821216   2.451359   1.477820
    12  C    7.360009   6.090874   4.906679   3.665053   2.453265
    13  C    8.690465   7.354290   6.249013   4.903006   3.821345
    14  C    9.812901   8.531566   7.359584   6.090655   4.906179
    15  C   11.136450   9.805562   8.690182   7.354289   6.248512
    16  C   12.263221  10.974559   9.809927   8.528589   7.356538
    17  H    7.000187   8.319312   9.452912  10.767258  11.905840
    18  H    6.307263   7.435089   8.687440   9.865585  11.098374
    19  H    5.061335   6.496302   7.477228   8.881442   9.912413
    20  H    3.992267   4.996683   6.282217   7.407041   8.660617
    21  H    2.707507   4.182472   5.052660   6.487548   7.468813
    22  H    2.103394   2.657576   3.990831   4.994463   6.280208
    23  H    1.087666   2.222755   2.708101   4.183059   5.053654
    24  H    2.221807   1.087697   2.103246   2.657037   3.990292
    25  H    2.661775   2.103982   1.087665   2.222910   2.708414
    26  H    4.178628   2.703322   2.221828   1.087696   2.103169
    27  H    5.004158   3.994516   2.661813   2.103912   1.087665
    28  H    6.480791   5.043514   4.178941   2.703595   2.221979
    29  H    7.419157   6.286741   5.003649   3.994035   2.661336
    30  H    8.864126   7.455634   6.482039   5.044797   4.179844
    31  H    9.853255   8.667462   7.418321   6.286195   5.002933
    32  H   11.288334   9.898573   8.876499   7.468388   6.493654
    33  H   12.319520  11.103531   9.876572   8.690278   7.441439
    34  H   13.223024  11.903140  10.772905   9.451946   8.324077
                   11         12         13         14         15
    11  C    0.000000
    12  C    1.339560   0.000000
    13  C    2.451651   1.477857   0.000000
    14  C    3.664970   2.452916   1.339501   0.000000
    15  C    4.902939   3.820734   2.451291   1.477359   0.000000
    16  C    6.087656   4.903286   3.661558   2.450378   1.334994
    17  H   13.216779  14.358667  15.667345  16.811188  18.117941
    18  H   12.303705  13.523469  14.746007  15.956208  17.190320
    19  H   11.296166  12.355262  13.724964  14.801571  16.160745
    20  H    9.836854  11.070470  12.274938  13.494900  14.716838
    21  H    8.872924   9.903920  11.287873  12.346317  13.716019
    22  H    7.404632   8.658252   9.834751  11.067954  12.272689
    23  H    6.488493   7.469719   8.874048   9.904313  11.288256
    24  H    4.993841   6.279506   7.404439   8.657590   9.834517
    25  H    4.183415   5.053770   6.488835   7.469203   8.873486
    26  H    2.657035   3.990233   4.994391   6.279678   7.405047
    27  H    2.222948   2.708169   4.183251   5.052771   6.487627
    28  H    1.087697   2.103192   2.657578   3.990635   4.995083
    29  H    2.103777   1.087667   2.222848   2.707439   4.182066
    30  H    2.704495   2.222300   1.087714   2.103181   2.657485
    31  H    3.993931   2.661186   2.104002   1.087686   2.222021
    32  H    5.056899   4.190073   2.714891   2.228181   1.086770
    33  H    6.308462   5.025788   4.013841   2.681835   2.112355
    34  H    7.000890   5.878539   4.550057   3.443503   2.101793
                   16         17         18         19         20
    16  C    0.000000
    17  H   19.261124   0.000000
    18  H   18.390824   1.869506   0.000000
    19  H   17.247737   2.403557   3.067188   0.000000
    20  H   15.924445   3.787202   2.478656   3.175165   0.000000
    21  H   14.790287   4.689149   4.579034   2.464627   3.069809
    22  H   13.489460   6.093692   4.929520   4.774772   2.450867
    23  H   12.344403   7.085747   6.673715   4.920051   4.563150
    24  H   11.064363   8.480448   7.378268   6.894305   4.899613
    25  H    9.901539   9.512554   8.952590   7.376446   6.652487
    26  H    8.654719  10.895060   9.826268   9.180666   7.347612
    27  H    7.466102  11.950964  11.304445   9.833138   8.928526
    28  H    6.276703  13.322993  12.274487  11.535653   9.795834
    29  H    5.050341  14.394310  13.691017  12.289175  11.278155
    30  H    3.986321  15.759105  14.723969  13.925378  12.245322
    31  H    2.706525  16.840307  16.096915  14.744568  13.663513
    32  H    2.089994  18.211180  17.185610  16.345312  14.706972
    33  H    1.086041  19.312638  18.538548  17.224668  16.092376
    34  H    1.089383  20.211191  19.292102  18.233513  16.818587
                   21         22         23         24         25
    21  H    0.000000
    22  H    3.171682   0.000000
    23  H    2.455426   3.069583   0.000000
    24  H    4.766771   2.448748   3.171664   0.000000
    25  H    4.911826   4.562347   2.456405   3.069512   0.000000
    26  H    6.885394   4.896755   4.766999   2.448012   3.171769
    27  H    7.368530   6.651020   4.913118   4.561941   2.456719
    28  H    9.172119   7.344990   6.886270   4.896258   4.767483
    29  H    9.824584   8.926126   7.369187   6.650008   4.912799
    30  H   11.528186   9.794496   9.174056   7.345779   6.887505
    31  H   12.279997  11.275431   9.824617   8.925087   7.368243
    32  H   13.929064  12.256163  11.541004   9.807461   9.185630
    33  H   14.760127  13.684022  12.304775  11.297282   9.848425
    34  H   15.782228  14.374112  13.344373  11.934855  10.912462
                   26         27         28         29         30
    26  H    0.000000
    27  H    3.069426   0.000000
    28  H    2.448252   3.171882   0.000000
    29  H    4.561550   2.456085   3.069361   0.000000
    30  H    4.897783   4.768032   2.449535   3.172026   0.000000
    31  H    6.649858   4.911538   4.561883   2.455455   3.069545
    32  H    7.359474   6.897607   4.911230   4.776230   2.461696
    33  H    8.947038   7.391738   6.670501   4.935668   4.577804
    34  H    9.502084   8.492860   7.080869   6.101642   4.688232
                   31         32         33         34
    31  H    0.000000
    32  H    3.175463   0.000000
    33  H    2.480224   3.067038   0.000000
    34  H    3.792491   2.403684   1.874138   0.000000
 Stoichiometry    C16H18
 Framework group  C1[X(C16H18)]
 Deg. of freedom    96
 Full point group                 C1      NOp   1
 Largest Abelian subgroup         C1      NOp   1
 Largest concise Abelian subgroup C1      NOp   1
                         Standard orientation:                         
 ---------------------------------------------------------------------
 Center     Atomic      Atomic             Coordinates (Angstroms)
 Number     Number       Type             X           Y           Z
 ---------------------------------------------------------------------
      1          6           0        9.154571   -0.297243    0.003033
      2          6           0        8.009001    0.388304    0.001774
      3          6           0        6.704609   -0.305089    0.001071
      4          6           0        5.557023    0.385984   -0.000065
      5          6           0        4.252798   -0.308762   -0.000657
      6          6           0        3.103944    0.380286   -0.001476
      7          6           0        1.801326   -0.317494   -0.001848
      8          6           0        0.650626    0.368411   -0.002165
      9          6           0       -0.649923   -0.333297   -0.002231
     10          6           0       -1.802716    0.349019   -0.001936
     11          6           0       -3.101171   -0.356649   -0.001675
     12          6           0       -4.255838    0.322443   -0.000792
     13          6           0       -5.552642   -0.386331   -0.000259
     14          6           0       -6.708546    0.290535    0.001051
     15          6           0       -8.003697   -0.420221    0.001737
     16          6           0       -9.158578    0.249447    0.003235
     17          1           0       10.102537    0.230983    0.003550
     18          1           0        9.159623   -1.383317    0.003572
     19          1           0        8.045604    1.474409    0.001289
     20          1           0        6.680985   -1.392556    0.001540
     21          1           0        5.580978    1.473401   -0.000482
     22          1           0        4.230121   -1.396225   -0.000308
     23          1           0        3.125559    1.467737   -0.001735
     24          1           0        1.781389   -1.405008   -0.001697
     25          1           0        0.669182    1.455918   -0.002194
     26          1           0       -0.666572   -1.420866   -0.002335
     27          1           0       -1.787461    1.436578   -0.001702
     28          1           0       -3.114712   -1.444262   -0.002041
     29          1           0       -4.243402    1.410039   -0.000314
     30          1           0       -5.564066   -1.473985   -0.000837
     31          1           0       -6.698650    1.378176    0.001699
     32          1           0       -8.025543   -1.506771    0.001056
     33          1           0       -9.178502    1.335305    0.003984
     34          1           0      -10.101792   -0.295623    0.004173
 ---------------------------------------------------------------------
 Rotational constants (GHZ):           9.0563260           0.0738273           0.0732304
 Standard basis: 6-31G(d,p) (6D, 7F)
 There are   330 symmetry adapted cartesian basis functions of A   symmetry.
 There are   330 symmetry adapted basis functions of A   symmetry.
   330 basis functions,   574 primitive gaussians,   330 cartesian basis functions
    57 alpha electrons       57 beta electrons
       nuclear repulsion energy       799.3084122362 Hartrees.
 NAtoms=   34 NActive=   34 NUniq=   34 SFac= 1.00D+00 NAtFMM=   60 NAOKFM=F Big=F
 Integral buffers will be    131072 words long.
 Raffenetti 2 integral format.
 Two-electron integral symmetry is turned on.
 One-electron integrals computed using PRISM.
 NBasis=   330 RedAO= T EigKep=  1.25D-03  NBF=   330
 NBsUse=   330 1.00D-06 EigRej= -1.00D+00 NBFU=   330
 ExpMin= 1.61D-01 ExpMax= 3.05D+03 ExpMxC= 4.57D+02 IAcc=3 IRadAn=         5 AccDes= 0.00D+00
 Harris functional with IExCor=  402 and IRadAn=       5 diagonalized for initial guess.
 HarFok:  IExCor=  402 AccDes= 0.00D+00 IRadAn=         5 IDoV= 1 UseB2=F ITyADJ=14
 ICtDFT=  3500011 ScaDFX=  1.000000  1.000000  1.000000  1.000000
 FoFCou: FMM=F IPFlag=           0 FMFlag=      100000 FMFlg1=           0
         NFxFlg=           0 DoJE=T BraDBF=F KetDBF=T FulRan=T
         wScrn=  0.000000 ICntrl=       500 IOpCl=  0 I1Cent=   200000004 NGrid=           0
         NMat0=    1 NMatS0=      1 NMatT0=    0 NMatD0=    1 NMtDS0=    0 NMtDT0=    0
 Petite list used in FoFCou.
 Requested convergence on RMS density matrix=1.00D-08 within 128 cycles.
 Requested convergence on MAX density matrix=1.00D-06.
 Requested convergence on             energy=1.00D-06.
 No special actions if energy rises.
 Integral accuracy reduced to 1.0D-05 until final iterations.
 Initial convergence to 1.0D-05 achieved.  Increase integral accuracy.
 SCF Done:  E(RB3LYP) =  -620.448049501     A.U. after   13 cycles
            NFock= 13  Conv=0.63D-08     -V/T= 2.0100

 **********************************************************************

            Population analysis using the SCF Density.

 **********************************************************************

 Orbital symmetries:
       Occupied  (A) (A) (A) (A) (A) (A) (A) (A) (A) (A) (A) (A)
                 (A) (A) (A) (A) (A) (A) (A) (A) (A) (A) (A) (A)
                 (A) (A) (A) (A) (A) (A) (A) (A) (A) (A) (A) (A)
                 (A) (A) (A) (A) (A) (A) (A) (A) (A) (A) (A) (A)
                 (A) (A) (A) (A) (A) (A) (A) (A) (A)
       Virtual   (A) (A) (A) (A) (A) (A) (A) (A) (A) (A) (A) (A)
                 (A) (A) (A) (A) (A) (A) (A) (A) (A) (A) (A) (A)
                 (A) (A) (A) (A) (A) (A) (A) (A) (A) (A) (A) (A)
                 (A) (A) (A) (A) (A) (A) (A) (A) (A) (A) (A) (A)
                 (A) (A) (A) (A) (A) (A) (A) (A) (A) (A) (A) (A)
                 (A) (A) (A) (A) (A) (A) (A) (A) (A) (A) (A) (A)
                 (A) (A) (A) (A) (A) (A) (A) (A) (A) (A) (A) (A)
                 (A) (A) (A) (A) (A) (A) (A) (A) (A) (A) (A) (A)
                 (A) (A) (A) (A) (A) (A) (A) (A) (A) (A) (A) (A)
                 (A) (A) (A) (A) (A) (A) (A) (A) (A) (A) (A) (A)
                 (A) (A) (A) (A) (A) (A) (A) (A) (A) (A) (A) (A)
                 (A) (A) (A) (A) (A) (A) (A) (A) (A) (A) (A) (A)
                 (A) (A) (A) (A) (A) (A) (A) (A) (A) (A) (A) (A)
                 (A) (A) (A) (A) (A) (A) (A) (A) (A) (A) (A) (A)
                 (A) (A) (A) (A) (A) (A) (A) (A) (A) (A) (A) (A)
                 (A) (A) (A) (A) (A) (A) (A) (A) (A) (A) (A) (A)
                 (A) (A) (A) (A) (A) (A) (A) (A) (A) (A) (A) (A)
                 (A) (A) (A) (A) (A) (A) (A) (A) (A) (A) (A) (A)
                 (A) (A) (A) (A) (A) (A) (A) (A) (A) (A) (A) (A)
                 (A) (A) (A) (A) (A) (A) (A) (A) (A) (A) (A) (A)
                 (A) (A) (A) (A) (A) (A) (A) (A) (A) (A) (A) (A)
                 (A) (A) (A) (A) (A) (A) (A) (A) (A) (A) (A) (A)
                 (A) (A) (A) (A) (A) (A) (A) (A) (A)
 The electronic state is 1-A.
 Alpha  occ. eigenvalues --  -10.19154 -10.19143 -10.19131 -10.19124 -10.19116
 Alpha  occ. eigenvalues --  -10.19108 -10.19102 -10.19094 -10.19040 -10.19029
 Alpha  occ. eigenvalues --  -10.19022 -10.19014 -10.18959 -10.18944 -10.17963
 Alpha  occ. eigenvalues --  -10.17938  -0.82792  -0.82055  -0.80860  -0.79234
 Alpha  occ. eigenvalues --   -0.77204  -0.74824  -0.72223  -0.69826  -0.62943
 Alpha  occ. eigenvalues --   -0.60059  -0.56935  -0.56829  -0.56278  -0.55418
 Alpha  occ. eigenvalues --   -0.54426  -0.54415  -0.48335  -0.48097  -0.46421
 Alpha  occ. eigenvalues --   -0.46048  -0.44625  -0.42779  -0.41420  -0.40207
 Alpha  occ. eigenvalues --   -0.39326  -0.38433  -0.37833  -0.37454  -0.37155
 Alpha  occ. eigenvalues --   -0.36401  -0.35579  -0.35098  -0.34360  -0.34158
 Alpha  occ. eigenvalues --   -0.33160  -0.32624  -0.30520  -0.27875  -0.24749
 Alpha  occ. eigenvalues --   -0.21296  -0.18039
 Alpha virt. eigenvalues --   -0.06570  -0.03053   0.00890   0.04480   0.07278
 Alpha virt. eigenvalues --    0.08443   0.09037   0.09482   0.09799   0.09933
 Alpha virt. eigenvalues --    0.11064   0.12519   0.12609   0.13126   0.14022
 Alpha virt. eigenvalues --    0.14188   0.14904   0.15065   0.15549   0.15597
 Alpha virt. eigenvalues --    0.16693   0.17967   0.19670   0.19734   0.20314
 Alpha virt. eigenvalues --    0.20972   0.26114   0.29532   0.30939   0.31372
 Alpha virt. eigenvalues --    0.33226   0.33708   0.34866   0.36387   0.36560
 Alpha virt. eigenvalues --    0.37541   0.38610   0.41162   0.41997   0.42241
 Alpha virt. eigenvalues --    0.42835   0.47114   0.49234   0.51757   0.52359
 Alpha virt. eigenvalues --    0.53366   0.53394   0.54876   0.55278   0.56776
 Alpha virt. eigenvalues --    0.57190   0.57784   0.58675   0.58785   0.59149
 Alpha virt. eigenvalues --    0.59175   0.59619   0.60013   0.60783   0.61600
 Alpha virt. eigenvalues --    0.62170   0.62580   0.63439   0.64286   0.64994
 Alpha virt. eigenvalues --    0.66075   0.66114   0.67568   0.67948   0.69539
 Alpha virt. eigenvalues --    0.69947   0.71445   0.71812   0.75327   0.75518
 Alpha virt. eigenvalues --    0.78715   0.79464   0.80956   0.82731   0.83524
 Alpha virt. eigenvalues --    0.84156   0.84595   0.85085   0.85784   0.86011
 Alpha virt. eigenvalues --    0.86491   0.87018   0.87526   0.87842   0.88274
 Alpha virt. eigenvalues --    0.89644   0.91218   0.91673   0.91852   0.92732
 Alpha virt. eigenvalues --    0.94768   0.94915   0.98302   1.01215   1.03122
 Alpha virt. eigenvalues --    1.03265   1.05282   1.05677   1.06563   1.07859
 Alpha virt. eigenvalues --    1.09622   1.09893   1.10267   1.13529   1.16567
 Alpha virt. eigenvalues --    1.17724   1.22445   1.24557   1.27369   1.29702
 Alpha virt. eigenvalues --    1.29788   1.30815   1.30913   1.31014   1.31088
 Alpha virt. eigenvalues --    1.32270   1.32920   1.33038   1.33595   1.33790
 Alpha virt. eigenvalues --    1.34609   1.36178   1.37588   1.39287   1.41188
 Alpha virt. eigenvalues --    1.43299   1.43415   1.45578   1.47863   1.49773
 Alpha virt. eigenvalues --    1.49884   1.51328   1.51999   1.52304   1.53069
 Alpha virt. eigenvalues --    1.76335   1.76448   1.76589   1.76878   1.76995
 Alpha virt. eigenvalues --    1.78006   1.78123   1.83018   1.86037   1.86123
 Alpha virt. eigenvalues --    1.86249   1.90677   1.91919   1.92472   1.93013
 Alpha virt. eigenvalues --    1.94135   1.94371   1.95879   1.95958   1.96814
 Alpha virt. eigenvalues --    1.98195   1.98316   2.01229   2.03303   2.04190
 Alpha virt. eigenvalues --    2.05943   2.07883   2.09747   2.09754   2.10207
 Alpha virt. eigenvalues --    2.13165   2.15306   2.16528   2.17491   2.18594
 Alpha virt. eigenvalues --    2.18602   2.20777   2.21350   2.22901   2.23591
 Alpha virt. eigenvalues --    2.24246   2.26103   2.27299   2.30554   2.33959
 Alpha virt. eigenvalues --    2.35038   2.36978   2.41474   2.41608   2.44916
 Alpha virt. eigenvalues --    2.44982   2.46025   2.48062   2.48266   2.49092
 Alpha virt. eigenvalues --    2.49271   2.49819   2.51475   2.51607   2.51673
 Alpha virt. eigenvalues --    2.52837   2.54319   2.55787   2.56601   2.56790
 Alpha virt. eigenvalues --    2.58374   2.58499   2.61093   2.61150   2.62943
 Alpha virt. eigenvalues --    2.65309   2.65526   2.66484   2.67421   2.68509
 Alpha virt. eigenvalues --    2.68662   2.69450   2.70411   2.70758   2.71240
 Alpha virt. eigenvalues --    2.72499   2.74912   2.79157   2.79259   2.80775
 Alpha virt. eigenvalues --    2.84985   2.86805   2.87959   2.89500   2.91434
 Alpha virt. eigenvalues --    2.92073   2.92871   2.92995   2.95879   2.96013
 Alpha virt. eigenvalues --    2.98328   2.98630   2.99828   3.00062   3.27547
 Alpha virt. eigenvalues --    3.28019   3.35331   3.36072   3.37420   3.39257
 Alpha virt. eigenvalues --    3.41437   3.44195   3.47960   3.52489   3.53061
 Alpha virt. eigenvalues --    3.58367   3.59912   3.63751   3.64912   3.67254
 Alpha virt. eigenvalues --    3.70649   3.71153   4.13702   4.13825   4.14044
 Alpha virt. eigenvalues --    4.14455   4.15337   4.16927   4.19446   4.24502
 Alpha virt. eigenvalues --    4.27374   4.33774   4.40988   4.48968   4.57160
 Alpha virt. eigenvalues --    4.64766   4.70939   4.74956
          Condensed to atoms (all electrons):
               1          2          3          4          5          6
     1  C    4.965526   0.618708  -0.031437   0.002711  -0.000276   0.000005
     2  C    0.618708   4.740053   0.421019  -0.020046   0.004041  -0.000269
     3  C   -0.031437   0.421019   4.861363   0.577801  -0.018301   0.002519
     4  C    0.002711  -0.020046   0.577801   4.868707   0.392944  -0.016702
     5  C   -0.000276   0.004041  -0.018301   0.392944   4.887313   0.563664
     6  C    0.000005  -0.000269   0.002519  -0.016702   0.563664   4.881248
     7  C   -0.000000   0.000002  -0.000255   0.003645  -0.017129   0.396047
     8  C   -0.000000  -0.000000   0.000004  -0.000256   0.002548  -0.017534
     9  C    0.000000   0.000000  -0.000000   0.000002  -0.000256   0.003676
    10  C    0.000000   0.000000  -0.000000  -0.000000   0.000004  -0.000256
    11  C   -0.000000   0.000000   0.000000   0.000000  -0.000000   0.000002
    12  C    0.000000  -0.000000   0.000000   0.000000  -0.000000  -0.000000
    13  C    0.000000   0.000000  -0.000000   0.000000   0.000000   0.000000
    14  C    0.000000   0.000000   0.000000  -0.000000   0.000000   0.000000
    15  C    0.000000   0.000000   0.000000   0.000000  -0.000000   0.000000
    16  C    0.000000   0.000000   0.000000   0.000000   0.000000  -0.000000
    17  H    0.369501  -0.020441   0.004033  -0.000224   0.000003  -0.000000
    18  H    0.382762  -0.035915  -0.012745   0.000562  -0.000000  -0.000000
    19  H   -0.050984   0.381948  -0.047464  -0.005756   0.000268  -0.000005
    20  H   -0.005175  -0.046717   0.379537  -0.051058  -0.009579   0.000551
    21  H    0.000485  -0.009045  -0.053559   0.381312  -0.047979  -0.005248
    22  H   -0.000003   0.000240  -0.005250  -0.048076   0.381148  -0.052747
    23  H    0.000000  -0.000004   0.000529  -0.009191  -0.052884   0.380867
    24  H    0.000000  -0.000000  -0.000004   0.000251  -0.005301  -0.047981
    25  H    0.000000   0.000000  -0.000000  -0.000004   0.000536  -0.009254
    26  H   -0.000000  -0.000000   0.000000  -0.000000  -0.000004   0.000253
    27  H    0.000000  -0.000000   0.000000   0.000000  -0.000000  -0.000004
    28  H   -0.000000   0.000000   0.000000  -0.000000   0.000000  -0.000000
    29  H    0.000000  -0.000000   0.000000  -0.000000   0.000000   0.000000
    30  H    0.000000   0.000000  -0.000000   0.000000   0.000000  -0.000000
    31  H    0.000000   0.000000   0.000000  -0.000000   0.000000  -0.000000
    32  H    0.000000   0.000000   0.000000   0.000000  -0.000000   0.000000
    33  H    0.000000   0.000000   0.000000   0.000000   0.000000  -0.000000
    34  H    0.000000   0.000000   0.000000   0.000000   0.000000   0.000000
               7          8          9         10         11         12
     1  C   -0.000000  -0.000000   0.000000   0.000000  -0.000000   0.000000
     2  C    0.000002  -0.000000   0.000000   0.000000   0.000000  -0.000000
     3  C   -0.000255   0.000004  -0.000000  -0.000000   0.000000   0.000000
     4  C    0.003645  -0.000256   0.000002  -0.000000   0.000000   0.000000
     5  C   -0.017129   0.002548  -0.000256   0.000004  -0.000000  -0.000000
     6  C    0.396047  -0.017534   0.003676  -0.000256   0.000002  -0.000000
     7  C    4.881528   0.564425  -0.017253   0.002554  -0.000256   0.000004
     8  C    0.564425   4.881398   0.396865  -0.017625   0.003678  -0.000256
     9  C   -0.017253   0.396865   4.880581   0.564436  -0.017179   0.002541
    10  C    0.002554  -0.017625   0.564436   4.882325   0.396044  -0.017438
    11  C   -0.000256   0.003678  -0.017179   0.396044   4.880594   0.563693
    12  C    0.000004  -0.000256   0.002541  -0.017438   0.563693   4.887937
    13  C   -0.000000   0.000002  -0.000256   0.003651  -0.016438   0.392936
    14  C   -0.000000  -0.000000   0.000004  -0.000255   0.002507  -0.018496
    15  C    0.000000   0.000000  -0.000000   0.000002  -0.000268   0.004050
    16  C    0.000000   0.000000  -0.000000  -0.000000   0.000005  -0.000277
    17  H    0.000000  -0.000000   0.000000   0.000000   0.000000   0.000000
    18  H    0.000000   0.000000  -0.000000   0.000000  -0.000000   0.000000
    19  H   -0.000000   0.000000  -0.000000   0.000000   0.000000  -0.000000
    20  H   -0.000004  -0.000000   0.000000   0.000000  -0.000000   0.000000
    21  H    0.000250  -0.000004  -0.000000   0.000000  -0.000000   0.000000
    22  H   -0.009318   0.000545  -0.000004  -0.000000   0.000000   0.000000
    23  H   -0.047840  -0.005269   0.000247  -0.000004  -0.000000   0.000000
    24  H    0.380946  -0.052817  -0.009333   0.000546  -0.000004  -0.000000
    25  H   -0.052702   0.380789  -0.047823  -0.005267   0.000246  -0.000004
    26  H   -0.005306  -0.047980   0.380889  -0.052849  -0.009333   0.000546
    27  H    0.000537  -0.009262  -0.052674   0.380845  -0.047839  -0.005262
    28  H   -0.000004   0.000253  -0.005299  -0.047973   0.380940  -0.053002
    29  H   -0.000000  -0.000004   0.000539  -0.009270  -0.052639   0.381071
    30  H    0.000000  -0.000000  -0.000004   0.000254  -0.005265  -0.048062
    31  H    0.000000   0.000000  -0.000000  -0.000004   0.000548  -0.009560
    32  H    0.000000  -0.000000   0.000000  -0.000000  -0.000005   0.000269
    33  H    0.000000  -0.000000   0.000000   0.000000  -0.000000  -0.000000
    34  H    0.000000   0.000000  -0.000000   0.000000  -0.000000   0.000003
              13         14         15         16         17         18
     1  C    0.000000   0.000000   0.000000   0.000000   0.369501   0.382762
     2  C    0.000000   0.000000   0.000000   0.000000  -0.020441  -0.035915
     3  C   -0.000000   0.000000   0.000000   0.000000   0.004033  -0.012745
     4  C    0.000000  -0.000000   0.000000   0.000000  -0.000224   0.000562
     5  C    0.000000   0.000000  -0.000000   0.000000   0.000003  -0.000000
     6  C    0.000000   0.000000   0.000000  -0.000000  -0.000000  -0.000000
     7  C   -0.000000  -0.000000   0.000000   0.000000   0.000000   0.000000
     8  C    0.000002  -0.000000   0.000000   0.000000  -0.000000   0.000000
     9  C   -0.000256   0.000004  -0.000000  -0.000000   0.000000  -0.000000
    10  C    0.003651  -0.000255   0.000002  -0.000000   0.000000   0.000000
    11  C   -0.016438   0.002507  -0.000268   0.000005   0.000000  -0.000000
    12  C    0.392936  -0.018496   0.004050  -0.000277   0.000000   0.000000
    13  C    4.868204   0.577942  -0.019919   0.002698   0.000000   0.000000
    14  C    0.577942   4.861644   0.421046  -0.031530   0.000000   0.000000
    15  C   -0.019919   0.421046   4.740030   0.618459   0.000000   0.000000
    16  C    0.002698  -0.031530   0.618459   4.966748   0.000000   0.000000
    17  H    0.000000   0.000000   0.000000   0.000000   0.602096  -0.042387
    18  H    0.000000   0.000000   0.000000   0.000000  -0.042387   0.601525
    19  H    0.000000   0.000000   0.000000   0.000000  -0.008091   0.005979
    20  H   -0.000000   0.000000   0.000000   0.000000   0.000026   0.004592
    21  H    0.000000  -0.000000   0.000000   0.000000  -0.000008   0.000014
    22  H   -0.000000   0.000000  -0.000000   0.000000   0.000000   0.000001
    23  H   -0.000000   0.000000   0.000000  -0.000000  -0.000000  -0.000000
    24  H    0.000000   0.000000  -0.000000   0.000000   0.000000  -0.000000
    25  H   -0.000000   0.000000  -0.000000  -0.000000  -0.000000   0.000000
    26  H   -0.000004  -0.000000   0.000000   0.000000   0.000000   0.000000
    27  H    0.000245  -0.000004  -0.000000   0.000000  -0.000000   0.000000
    28  H   -0.009260   0.000536  -0.000004   0.000000   0.000000   0.000000
    29  H   -0.047982  -0.005221   0.000236  -0.000003   0.000000   0.000000
    30  H    0.381353  -0.053639  -0.009089   0.000489   0.000000   0.000000
    31  H   -0.050985   0.379474  -0.046683  -0.005159   0.000000   0.000000
    32  H   -0.005772  -0.047464   0.381936  -0.050969   0.000000   0.000000
    33  H    0.000560  -0.012724  -0.035997   0.382697   0.000000   0.000000
    34  H   -0.000222   0.004017  -0.020458   0.368996   0.000000   0.000000
              19         20         21         22         23         24
     1  C   -0.050984  -0.005175   0.000485  -0.000003   0.000000   0.000000
     2  C    0.381948  -0.046717  -0.009045   0.000240  -0.000004  -0.000000
     3  C   -0.047464   0.379537  -0.053559  -0.005250   0.000529  -0.000004
     4  C   -0.005756  -0.051058   0.381312  -0.048076  -0.009191   0.000251
     5  C    0.000268  -0.009579  -0.047979   0.381148  -0.052884  -0.005301
     6  C   -0.000005   0.000551  -0.005248  -0.052747   0.380867  -0.047981
     7  C   -0.000000  -0.000004   0.000250  -0.009318  -0.047840   0.380946
     8  C    0.000000  -0.000000  -0.000004   0.000545  -0.005269  -0.052817
     9  C   -0.000000   0.000000  -0.000000  -0.000004   0.000247  -0.009333
    10  C    0.000000   0.000000   0.000000  -0.000000  -0.000004   0.000546
    11  C    0.000000  -0.000000  -0.000000   0.000000  -0.000000  -0.000004
    12  C   -0.000000   0.000000   0.000000   0.000000   0.000000  -0.000000
    13  C    0.000000  -0.000000   0.000000  -0.000000  -0.000000   0.000000
    14  C    0.000000   0.000000  -0.000000   0.000000   0.000000   0.000000
    15  C    0.000000   0.000000   0.000000  -0.000000   0.000000  -0.000000
    16  C    0.000000   0.000000   0.000000   0.000000  -0.000000   0.000000
    17  H   -0.008091   0.000026  -0.000008   0.000000  -0.000000   0.000000
    18  H    0.005979   0.004592   0.000014   0.000001  -0.000000  -0.000000
    19  H    0.631755   0.004341   0.004181   0.000005   0.000001  -0.000000
    20  H    0.004341   0.631657   0.006058   0.004065   0.000014   0.000001
    21  H    0.004181   0.006058   0.634117   0.004272   0.004052   0.000005
    22  H    0.000005   0.004065   0.004272   0.634325   0.006064   0.004071
    23  H    0.000001   0.000014   0.004052   0.006064   0.634710   0.004274
    24  H   -0.000000   0.000001   0.000005   0.004071   0.004274   0.634920
    25  H   -0.000000  -0.000000   0.000001   0.000014   0.004037   0.006072
    26  H    0.000000  -0.000000  -0.000000   0.000001   0.000005   0.004078
    27  H    0.000000   0.000000  -0.000000  -0.000000   0.000001   0.000014
    28  H    0.000000   0.000000   0.000000  -0.000000  -0.000000   0.000001
    29  H    0.000000   0.000000   0.000000   0.000000  -0.000000  -0.000000
    30  H    0.000000   0.000000   0.000000   0.000000   0.000000  -0.000000
    31  H    0.000000   0.000000   0.000000   0.000000   0.000000   0.000000
    32  H    0.000000   0.000000   0.000000   0.000000   0.000000   0.000000
    33  H    0.000000   0.000000   0.000000   0.000000   0.000000   0.000000
    34  H    0.000000   0.000000   0.000000   0.000000   0.000000  -0.000000
              25         26         27         28         29         30
     1  C    0.000000  -0.000000   0.000000  -0.000000   0.000000   0.000000
     2  C    0.000000  -0.000000  -0.000000   0.000000  -0.000000   0.000000
     3  C   -0.000000   0.000000   0.000000   0.000000   0.000000  -0.000000
     4  C   -0.000004  -0.000000   0.000000  -0.000000  -0.000000   0.000000
     5  C    0.000536  -0.000004  -0.000000   0.000000   0.000000   0.000000
     6  C   -0.009254   0.000253  -0.000004  -0.000000   0.000000  -0.000000
     7  C   -0.052702  -0.005306   0.000537  -0.000004  -0.000000   0.000000
     8  C    0.380789  -0.047980  -0.009262   0.000253  -0.000004  -0.000000
     9  C   -0.047823   0.380889  -0.052674  -0.005299   0.000539  -0.000004
    10  C   -0.005267  -0.052849   0.380845  -0.047973  -0.009270   0.000254
    11  C    0.000246  -0.009333  -0.047839   0.380940  -0.052639  -0.005265
    12  C   -0.000004   0.000546  -0.005262  -0.053002   0.381071  -0.048062
    13  C   -0.000000  -0.000004   0.000245  -0.009260  -0.047982   0.381353
    14  C    0.000000  -0.000000  -0.000004   0.000536  -0.005221  -0.053639
    15  C   -0.000000   0.000000  -0.000000  -0.000004   0.000236  -0.009089
    16  C   -0.000000   0.000000   0.000000   0.000000  -0.000003   0.000489
    17  H   -0.000000   0.000000  -0.000000   0.000000   0.000000   0.000000
    18  H    0.000000   0.000000   0.000000   0.000000   0.000000   0.000000
    19  H   -0.000000   0.000000   0.000000   0.000000   0.000000   0.000000
    20  H   -0.000000  -0.000000   0.000000   0.000000   0.000000   0.000000
    21  H    0.000001  -0.000000  -0.000000   0.000000   0.000000   0.000000
    22  H    0.000014   0.000001  -0.000000  -0.000000   0.000000   0.000000
    23  H    0.004037   0.000005   0.000001  -0.000000  -0.000000   0.000000
    24  H    0.006072   0.004078   0.000014   0.000001  -0.000000  -0.000000
    25  H    0.634770   0.004273   0.004033   0.000005   0.000001  -0.000000
    26  H    0.004273   0.635089   0.006074   0.004080   0.000014   0.000001
    27  H    0.004033   0.006074   0.634663   0.004271   0.004033   0.000005
    28  H    0.000005   0.004080   0.004271   0.635016   0.006070   0.004083
    29  H    0.000001   0.000014   0.004033   0.006070   0.634186   0.004268
    30  H   -0.000000   0.000001   0.000005   0.004083   0.004268   0.634344
    31  H   -0.000000  -0.000000   0.000001   0.000014   0.004041   0.006064
    32  H    0.000000  -0.000000  -0.000000   0.000001   0.000005   0.004200
    33  H    0.000000   0.000000  -0.000000  -0.000000   0.000001   0.000014
    34  H    0.000000  -0.000000   0.000000  -0.000000   0.000000  -0.000009
              31         32         33         34
     1  C    0.000000   0.000000   0.000000   0.000000
     2  C    0.000000   0.000000   0.000000   0.000000
     3  C    0.000000   0.000000   0.000000   0.000000
     4  C   -0.000000   0.000000   0.000000   0.000000
     5  C    0.000000  -0.000000   0.000000   0.000000
     6  C   -0.000000   0.000000  -0.000000   0.000000
     7  C    0.000000   0.000000   0.000000   0.000000
     8  C    0.000000  -0.000000  -0.000000   0.000000
     9  C   -0.000000   0.000000   0.000000  -0.000000
    10  C   -0.000004  -0.000000   0.000000   0.000000
    11  C    0.000548  -0.000005  -0.000000  -0.000000
    12  C   -0.009560   0.000269  -0.000000   0.000003
    13  C   -0.050985  -0.005772   0.000560  -0.000222
    14  C    0.379474  -0.047464  -0.012724   0.004017
    15  C   -0.046683   0.381936  -0.035997  -0.020458
    16  C   -0.005159  -0.050969   0.382697   0.368996
    17  H    0.000000   0.000000   0.000000   0.000000
    18  H    0.000000   0.000000   0.000000   0.000000
    19  H    0.000000   0.000000   0.000000   0.000000
    20  H    0.000000   0.000000   0.000000   0.000000
    21  H    0.000000   0.000000   0.000000   0.000000
    22  H    0.000000   0.000000   0.000000   0.000000
    23  H    0.000000   0.000000   0.000000   0.000000
    24  H    0.000000   0.000000   0.000000  -0.000000
    25  H   -0.000000   0.000000   0.000000   0.000000
    26  H   -0.000000  -0.000000   0.000000  -0.000000
    27  H    0.000001  -0.000000  -0.000000   0.000000
    28  H    0.000014   0.000001  -0.000000  -0.000000
    29  H    0.004041   0.000005   0.000001   0.000000
    30  H    0.006064   0.004200   0.000014  -0.000009
    31  H    0.631665   0.004337   0.004580   0.000023
    32  H    0.004337   0.631790   0.005978  -0.008107
    33  H    0.004580   0.005978   0.601300  -0.042100
    34  H    0.000023  -0.008107  -0.042100   0.602683
 Mulliken charges:
               1
     1  C   -0.251822
     2  C   -0.033574
     3  C   -0.077792
     4  C   -0.076624
     5  C   -0.080761
     6  C   -0.078833
     7  C   -0.079873
     8  C   -0.079502
     9  C   -0.079700
    10  C   -0.079720
    11  C   -0.079032
    12  C   -0.080693
    13  C   -0.076755
    14  C   -0.077838
    15  C   -0.033341
    16  C   -0.252154
    17  H    0.095494
    18  H    0.095613
    19  H    0.083823
    20  H    0.081693
    21  H    0.081097
    22  H    0.080646
    23  H    0.080389
    24  H    0.080260
    25  H    0.080275
    26  H    0.080173
    27  H    0.080322
    28  H    0.080271
    29  H    0.080654
    30  H    0.080993
    31  H    0.081644
    32  H    0.083801
    33  H    0.095691
    34  H    0.095174
 Sum of Mulliken charges =  -0.00000
 Mulliken charges with hydrogens summed into heavy atoms:
               1
     1  C   -0.060716
     2  C    0.050249
     3  C    0.003901
     4  C    0.004473
     5  C   -0.000115
     6  C    0.001556
     7  C    0.000387
     8  C    0.000774
     9  C    0.000473
    10  C    0.000602
    11  C    0.001239
    12  C   -0.000038
    13  C    0.004238
    14  C    0.003807
    15  C    0.050460
    16  C   -0.061289
 Electronic spatial extent (au):  <R**2>=          13858.3310
 Charge=             -0.0000 electrons
 Dipole moment (field-independent basis, Debye):
    X=              0.0269    Y=              0.0039    Z=              0.0008  Tot=              0.0272
 Quadrupole moment (field-independent basis, Debye-Ang):
   XX=            -92.8606   YY=            -84.5108   ZZ=           -105.1452
   XY=              1.1534   XZ=             -0.0032   YZ=              0.0012
 Traceless Quadrupole moment (field-independent basis, Debye-Ang):
   XX=              1.3116   YY=              9.6614   ZZ=            -10.9730
   XY=              1.1534   XZ=             -0.0032   YZ=              0.0012
 Octapole moment (field-independent basis, Debye-Ang**2):
  XXX=              2.4245  YYY=              0.0520  ZZZ=             -0.0021  XYY=             -0.0606
  XXY=              0.3280  XXZ=              0.1440  XZZ=              0.0669  YZZ=              0.0090
  YYZ=             -0.0004  XYZ=             -0.0442
 Hexadecapole moment (field-independent basis, Debye-Ang**3):
 XXXX=         -18155.2910 YYYY=           -270.6495 ZZZZ=           -109.0124 XXXY=            130.6602
 XXXZ=             -0.3759 YYYX=             -0.3056 YYYZ=              0.0027 ZZZX=             -0.0023
 ZZZY=              0.0011 XXYY=          -2882.5705 XXZZ=          -3534.0869 YYZZ=            -71.1998
 XXYZ=              0.0388 YYXZ=              0.0002 ZZXY=              0.6445
 N-N= 7.993084122362D+02 E-N=-3.033627142539D+03  KE= 6.142939719669D+02
 Calling FoFJK, ICntrl=      2127 FMM=F ISym2X=0 I1Cent= 0 IOpClX= 0 NMat=1 NMatS=1 NMatT=0.
 ***** Axes restored to original set *****
 -------------------------------------------------------------------
 Center     Atomic                   Forces (Hartrees/Bohr)
 Number     Number              X              Y              Z
 -------------------------------------------------------------------
      1        6          -0.008365006    0.004043590   -0.000203508
      2        6           0.010754780   -0.022443624    0.001341576
      3        6          -0.021232766    0.023739124   -0.001359842
      4        6           0.024646783   -0.025778430    0.001466903
      5        6          -0.026707153    0.025003613   -0.001403884
      6        6           0.027404791   -0.025642283    0.001438566
      7        6          -0.028019623    0.025425706   -0.001417522
      8        6           0.028107427   -0.025603477    0.001426291
      9        6          -0.028120570    0.025645519   -0.001424533
     10        6           0.027877034   -0.025553367    0.001418708
     11        6          -0.027281187    0.025839681   -0.001436810
     12        6           0.026470453   -0.025259735    0.001403260
     13        6          -0.024405426    0.026058953   -0.001468400
     14        6           0.020960558   -0.023994390    0.001372910
     15        6          -0.010476406    0.022586649   -0.001349573
     16        6           0.010344703   -0.005926585    0.000269197
     17        1          -0.002732045   -0.003528144    0.000237154
     18        1          -0.002392169    0.000484328   -0.000015572
     19        1           0.005356702    0.000237686   -0.000046348
     20        1          -0.003399314    0.000565044   -0.000013998
     21        1           0.003183393   -0.000398185    0.000006403
     22        1          -0.003184201    0.000476365   -0.000008649
     23        1           0.003196066   -0.000425609    0.000007861
     24        1          -0.003197225    0.000461741   -0.000006381
     25        1           0.003202112   -0.000453509    0.000009006
     26        1          -0.003204020    0.000459013   -0.000004983
     27        1           0.003210369   -0.000475610    0.000009357
     28        1          -0.003211276    0.000453977   -0.000003933
     29        1           0.003206975   -0.000501356    0.000009817
     30        1          -0.003202802    0.000448702   -0.000003093
     31        1           0.003415932   -0.000589051    0.000012372
     32        1          -0.005372995   -0.000125304    0.000044512
     33        1           0.002550257   -0.000545704    0.000016871
     34        1           0.000615848    0.005314672   -0.000323736
 -------------------------------------------------------------------
 Cartesian Forces:  Max     0.028120570 RMS     0.013125591

 GradGradGradGradGradGradGradGradGradGradGradGradGradGradGradGradGradGrad
 Berny optimization.
 FormGI is forming the generalized inverse of G from B-inverse, IUseBI=4.
 Internal  Forces:  Max     0.021564064 RMS     0.007816241
 Search for a local minimum.
 Step number   1 out of a maximum of  151
 All quantities printed in internal units (Hartrees-Bohrs-Radians)
 Mixed Optimization -- RFO/linear search
 Second derivative matrix not updated -- first step.
 ITU=  0
     Eigenvalues ---    0.01059   0.01059   0.01060   0.01060   0.01061
     Eigenvalues ---    0.01065   0.01067   0.01978   0.01978   0.01978
     Eigenvalues ---    0.01978   0.01978   0.01978   0.01979   0.01979
     Eigenvalues ---    0.01979   0.01979   0.01982   0.01983   0.01998
     Eigenvalues ---    0.01999   0.02887   0.02887   0.02888   0.02888
     Eigenvalues ---    0.02888   0.02889   0.02948   0.02948   0.02949
     Eigenvalues ---    0.02949   0.16000   0.16000   0.16000   0.16000
     Eigenvalues ---    0.16000   0.16000   0.16000   0.16000   0.16000
     Eigenvalues ---    0.16000   0.16000   0.16000   0.16000   0.16000
     Eigenvalues ---    0.16000   0.16000   0.16000   0.16000   0.22000
     Eigenvalues ---    0.22000   0.22000   0.22000   0.22000   0.22000
     Eigenvalues ---    0.22000   0.22000   0.22000   0.22000   0.22000
     Eigenvalues ---    0.22000   0.22000   0.22000   0.34816   0.34820
     Eigenvalues ---    0.34825   0.34830   0.34831   0.34874   0.34884
     Eigenvalues ---    0.34888   0.35077   0.35078   0.35080   0.35080
     Eigenvalues ---    0.35080   0.35080   0.35081   0.35082   0.35084
     Eigenvalues ---    0.35084   0.35084   0.35084   0.35189   0.35194
     Eigenvalues ---    0.35269   0.35274   0.35373   0.57284   0.57291
     Eigenvalues ---    0.57294   0.57298   0.57304   0.57317   0.58333
     Eigenvalues ---    0.58342
 RFO step:  Lambda=-2.60158768D-02 EMin= 1.05885578D-02
 Linear search not attempted -- first point.
 Maximum step size (   0.300) exceeded in Quadratic search.
    -- Step size scaled by   0.999
 Iteration  1 RMS(Cart)=  0.07327809 RMS(Int)=  0.00051122
 Iteration  2 RMS(Cart)=  0.00166038 RMS(Int)=  0.00000036
 Iteration  3 RMS(Cart)=  0.00000026 RMS(Int)=  0.00000035
 Variable       Old X    -DE/DX   Delta X   Delta X   Delta X     New X
                                 (Linear)    (Quad)   (Total)
    R1        2.52284   0.01184   0.00000   0.01942   0.01942   2.54226
    R2        2.05073   0.00018   0.00000   0.00048   0.00048   2.05121
    R3        2.05240  -0.00021   0.00000  -0.00056  -0.00056   2.05185
    R4        2.79158  -0.01412   0.00000  -0.03763  -0.03763   2.75394
    R5        2.05361   0.00064   0.00000   0.00169   0.00169   2.05530
    R6        2.53148   0.01868   0.00000   0.03116   0.03116   2.56264
    R7        2.05550  -0.00027   0.00000  -0.00071  -0.00071   2.05479
    R8        2.79250  -0.01783   0.00000  -0.04760  -0.04760   2.74490
    R9        2.05542  -0.00012   0.00000  -0.00032  -0.00032   2.05510
   R10        2.53156   0.02086   0.00000   0.03481   0.03481   2.56638
   R11        2.05545  -0.00019   0.00000  -0.00052  -0.00052   2.05494
   R12        2.79252  -0.01879   0.00000  -0.05015  -0.05015   2.74237
   R13        2.05539  -0.00014   0.00000  -0.00037  -0.00037   2.05502
   R14        2.53151   0.02153   0.00000   0.03593   0.03593   2.56744
   R15        2.05545  -0.00017   0.00000  -0.00045  -0.00045   2.05500
   R16        2.79259  -0.01901   0.00000  -0.05075  -0.05075   2.74184
   R17        2.05539  -0.00016   0.00000  -0.00042  -0.00042   2.05497
   R18        2.53145   0.02156   0.00000   0.03598   0.03598   2.56743
   R19        2.05545  -0.00016   0.00000  -0.00042  -0.00042   2.05503
   R20        2.79268  -0.01882   0.00000  -0.05025  -0.05025   2.74243
   R21        2.05539  -0.00017   0.00000  -0.00045  -0.00045   2.05494
   R22        2.53140   0.02095   0.00000   0.03494   0.03494   2.56635
   R23        2.05545  -0.00014   0.00000  -0.00038  -0.00038   2.05507
   R24        2.79275  -0.01788   0.00000  -0.04776  -0.04776   2.74499
   R25        2.05539  -0.00019   0.00000  -0.00050  -0.00050   2.05490
   R26        2.53129   0.01878   0.00000   0.03131   0.03131   2.56260
   R27        2.05548  -0.00013   0.00000  -0.00035  -0.00035   2.05513
   R28        2.79180  -0.01416   0.00000  -0.03775  -0.03775   2.75406
   R29        2.05543  -0.00025   0.00000  -0.00065  -0.00065   2.05478
   R30        2.52277   0.01189   0.00000   0.01949   0.01949   2.54227
   R31        2.05370   0.00060   0.00000   0.00159   0.00159   2.05529
   R32        2.05232  -0.00022   0.00000  -0.00058  -0.00058   2.05174
   R33        2.05864  -0.00265   0.00000  -0.00707  -0.00707   2.05156
    A1        2.09396   0.00444   0.00000   0.02386   0.02386   2.11781
    A2        2.11471   0.00028   0.00000   0.00148   0.00148   2.11619
    A3        2.07451  -0.00472   0.00000  -0.02533  -0.02533   2.04918
    A4        2.11373   0.01186   0.00000   0.04817   0.04817   2.16191
    A5        2.07637  -0.00046   0.00000   0.00528   0.00528   2.08166
    A6        2.09308  -0.01140   0.00000  -0.05345  -0.05345   2.03962
    A7        2.11097   0.01209   0.00000   0.04912   0.04912   2.16009
    A8        2.08111  -0.00958   0.00000  -0.04353  -0.04353   2.03758
    A9        2.09111  -0.00252   0.00000  -0.00559  -0.00559   2.08552
   A10        2.11010   0.01280   0.00000   0.05198   0.05198   2.16208
   A11        2.09080  -0.00310   0.00000  -0.00829  -0.00829   2.08252
   A12        2.08228  -0.00969   0.00000  -0.04369  -0.04369   2.03859
   A13        2.11189   0.01228   0.00000   0.04986   0.04986   2.16175
   A14        2.08110  -0.00944   0.00000  -0.04268  -0.04268   2.03842
   A15        2.09020  -0.00283   0.00000  -0.00719  -0.00719   2.08301
   A16        2.10956   0.01280   0.00000   0.05199   0.05199   2.16155
   A17        2.09117  -0.00309   0.00000  -0.00821  -0.00821   2.08296
   A18        2.08245  -0.00971   0.00000  -0.04378  -0.04378   2.03867
   A19        2.11228   0.01233   0.00000   0.05010   0.05010   2.16239
   A20        2.08091  -0.00948   0.00000  -0.04286  -0.04286   2.03804
   A21        2.09000  -0.00285   0.00000  -0.00724  -0.00724   2.08275
   A22        2.10928   0.01281   0.00000   0.05204   0.05204   2.16132
   A23        2.09126  -0.00309   0.00000  -0.00819  -0.00819   2.08308
   A24        2.08264  -0.00973   0.00000  -0.04385  -0.04385   2.03879
   A25        2.11238   0.01237   0.00000   0.05025   0.05025   2.16263
   A26        2.08089  -0.00951   0.00000  -0.04297  -0.04297   2.03791
   A27        2.08992  -0.00286   0.00000  -0.00727  -0.00727   2.08264
   A28        2.10935   0.01276   0.00000   0.05182   0.05182   2.16117
   A29        2.09120  -0.00305   0.00000  -0.00802  -0.00802   2.08318
   A30        2.08264  -0.00971   0.00000  -0.04381  -0.04381   2.03883
   A31        2.11213   0.01244   0.00000   0.05053   0.05053   2.16267
   A32        2.08106  -0.00955   0.00000  -0.04316  -0.04316   2.03790
   A33        2.08999  -0.00289   0.00000  -0.00738  -0.00738   2.08262
   A34        2.10975   0.01259   0.00000   0.05113   0.05113   2.16088
   A35        2.09101  -0.00296   0.00000  -0.00767  -0.00767   2.08334
   A36        2.08242  -0.00962   0.00000  -0.04345  -0.04345   2.03897
   A37        2.11165   0.01259   0.00000   0.05114   0.05114   2.16279
   A38        2.08149  -0.00962   0.00000  -0.04341  -0.04341   2.03808
   A39        2.09004  -0.00297   0.00000  -0.00773  -0.00773   2.08231
   A40        2.10994   0.01224   0.00000   0.04971   0.04971   2.15966
   A41        2.09144  -0.00257   0.00000  -0.00577  -0.00577   2.08568
   A42        2.08180  -0.00967   0.00000  -0.04395  -0.04395   2.03785
   A43        2.11421   0.01179   0.00000   0.04789   0.04789   2.16210
   A44        2.09281  -0.01138   0.00000  -0.05341  -0.05341   2.03940
   A45        2.07617  -0.00041   0.00000   0.00552   0.00552   2.08169
   A46        2.11462   0.00036   0.00000   0.00193   0.00193   2.11655
   A47        2.09211   0.00461   0.00000   0.02479   0.02479   2.11691
   A48        2.07645  -0.00497   0.00000  -0.02672  -0.02672   2.04973
    D1       -3.14157  -0.00000   0.00000  -0.00001  -0.00001  -3.14158
    D2       -0.00001   0.00000   0.00000   0.00000   0.00000  -0.00000
    D3        0.00001   0.00000   0.00000   0.00000   0.00000   0.00001
    D4        3.14157   0.00000   0.00000   0.00002   0.00002   3.14159
    D5        3.14148   0.00000   0.00000   0.00003   0.00003   3.14152
    D6       -0.00005   0.00000   0.00000   0.00000   0.00000  -0.00005
    D7       -0.00008   0.00000   0.00000   0.00002   0.00002  -0.00006
    D8        3.14156  -0.00000   0.00000  -0.00001  -0.00001   3.14156
    D9       -3.14151  -0.00000   0.00000  -0.00003  -0.00003  -3.14154
   D10        0.00000   0.00000   0.00000   0.00001   0.00001   0.00001
   D11        0.00003  -0.00000   0.00000  -0.00000  -0.00000   0.00003
   D12        3.14154   0.00000   0.00000   0.00004   0.00004   3.14158
   D13        3.14132   0.00000   0.00000   0.00009   0.00009   3.14140
   D14       -0.00016   0.00000   0.00000   0.00002   0.00002  -0.00013
   D15       -0.00019   0.00000   0.00000   0.00005   0.00005  -0.00015
   D16        3.14152  -0.00000   0.00000  -0.00002  -0.00002   3.14150
   D17       -3.14142  -0.00000   0.00000  -0.00007  -0.00007  -3.14149
   D18        0.00002   0.00000   0.00000   0.00001   0.00001   0.00003
   D19        0.00005  -0.00000   0.00000  -0.00000  -0.00000   0.00005
   D20        3.14150   0.00000   0.00000   0.00007   0.00007   3.14157
   D21        3.14115   0.00001   0.00000   0.00014   0.00014   3.14130
   D22       -0.00026   0.00000   0.00000   0.00005   0.00005  -0.00021
   D23       -0.00029   0.00000   0.00000   0.00007   0.00007  -0.00022
   D24        3.14148  -0.00000   0.00000  -0.00003  -0.00003   3.14145
   D25       -3.14135  -0.00000   0.00000  -0.00009  -0.00009  -3.14145
   D26        0.00005   0.00000   0.00000   0.00000   0.00000   0.00005
   D27        0.00006  -0.00000   0.00000  -0.00000  -0.00000   0.00006
   D28        3.14146   0.00000   0.00000   0.00009   0.00009   3.14156
   D29        3.14106   0.00001   0.00000   0.00017   0.00017   3.14123
   D30       -0.00033   0.00000   0.00000   0.00007   0.00007  -0.00026
   D31       -0.00034   0.00000   0.00000   0.00007   0.00007  -0.00027
   D32        3.14145  -0.00000   0.00000  -0.00003  -0.00003   3.14142
   D33       -3.14133  -0.00000   0.00000  -0.00010  -0.00010  -3.14143
   D34        0.00006  -0.00000   0.00000  -0.00000  -0.00000   0.00006
   D35        0.00006   0.00000   0.00000   0.00000   0.00000   0.00006
   D36        3.14145   0.00000   0.00000   0.00010   0.00010   3.14155
   D37        3.14108   0.00001   0.00000   0.00017   0.00016   3.14124
   D38       -0.00033   0.00000   0.00000   0.00007   0.00007  -0.00026
   D39       -0.00032   0.00000   0.00000   0.00006   0.00006  -0.00025
   D40        3.14145  -0.00000   0.00000  -0.00003  -0.00003   3.14143
   D41       -3.14138  -0.00000   0.00000  -0.00009  -0.00009  -3.14147
   D42        0.00006  -0.00000   0.00000  -0.00001  -0.00001   0.00006
   D43        0.00004   0.00000   0.00000   0.00000   0.00000   0.00004
   D44        3.14147   0.00000   0.00000   0.00008   0.00009   3.14156
   D45        3.14122   0.00001   0.00000   0.00012   0.00012   3.14134
   D46       -0.00026   0.00000   0.00000   0.00007   0.00007  -0.00019
   D47       -0.00022   0.00000   0.00000   0.00003   0.00003  -0.00019
   D48        3.14149  -0.00000   0.00000  -0.00002  -0.00002   3.14147
   D49       -3.14147  -0.00000   0.00000  -0.00002  -0.00002  -3.14149
   D50        0.00004   0.00000   0.00000  -0.00000  -0.00000   0.00004
   D51        0.00001   0.00000   0.00000   0.00003   0.00003   0.00004
   D52        3.14152   0.00000   0.00000   0.00005   0.00005   3.14157
   D53        3.14142   0.00000   0.00000   0.00005   0.00005   3.14147
   D54       -0.00013  -0.00000   0.00000  -0.00001  -0.00001  -0.00013
   D55       -0.00009   0.00000   0.00000   0.00003   0.00003  -0.00006
   D56        3.14155  -0.00000   0.00000  -0.00003  -0.00003   3.14152
   D57        0.00001   0.00000   0.00000   0.00002   0.00002   0.00003
   D58       -3.14111  -0.00002   0.00000  -0.00031  -0.00031  -3.14142
   D59        3.14156   0.00000   0.00000   0.00008   0.00008  -3.14155
   D60        0.00044  -0.00001   0.00000  -0.00026  -0.00026   0.00018
         Item               Value     Threshold  Converged?
 Maximum Force            0.021564     0.000450     NO 
 RMS     Force            0.007816     0.000300     NO 
 Maximum Displacement     0.283125     0.001800     NO 
 RMS     Displacement     0.071851     0.001200     NO 
 Predicted change in Energy=-1.417865D-02
 GradGradGradGradGradGradGradGradGradGradGradGradGradGradGradGradGradGrad

                          Input orientation:                          
 ---------------------------------------------------------------------
 Center     Atomic      Atomic             Coordinates (Angstroms)
 Number     Number       Type             X           Y           Z
 ---------------------------------------------------------------------
      1          6           0       -2.413521    1.151482    0.011704
      2          6           0       -1.171171    1.666087   -0.028324
      3          6           0        0.043018    0.861291    0.014570
      4          6           0        1.294378    1.382287   -0.026002
      5          6           0        2.506176    0.582538    0.016525
      6          6           0        3.759188    1.104692   -0.024343
      7          6           0        4.969710    0.305432    0.018034
      8          6           0        6.223674    0.826732   -0.023122
      9          6           0        7.433107    0.026323    0.019158
     10          6           0        8.687745    0.545958   -0.022306
     11          6           0        9.896268   -0.256387    0.019911
     12          6           0       11.151151    0.261138   -0.021814
     13          6           0       12.359366   -0.544119    0.020437
     14          6           0       13.613405   -0.029756   -0.021370
     15          6           0       14.823068   -0.841466    0.021155
     16          6           0       16.068401   -0.334231   -0.020271
     17          1           0       -3.290546    1.790108   -0.022884
     18          1           0       -2.577572    0.080324    0.079913
     19          1           0       -1.044066    2.744084   -0.096737
     20          1           0       -0.086263   -0.216174    0.082999
     21          1           0        1.420437    2.460296   -0.094460
     22          1           0        2.379951   -0.495361    0.085064
     23          1           0        3.885368    2.182637   -0.092911
     24          1           0        4.842854   -0.772414    0.086736
     25          1           0        6.350878    1.904520   -0.091857
     26          1           0        7.304957   -1.051375    0.088059
     27          1           0        8.816467    1.623537   -0.091240
     28          1           0        9.766539   -1.333905    0.089011
     29          1           0       11.281647    1.338468   -0.090938
     30          1           0       12.227901   -1.621450    0.089687
     31          1           0       13.748477    1.046938   -0.090631
     32          1           0       14.689628   -1.918633    0.090504
     33          1           0       16.239091    0.735773   -0.089400
     34          1           0       16.941235   -0.978905    0.013997
 ---------------------------------------------------------------------
                    Distance matrix (angstroms):
                    1          2          3          4          5
     1  C    0.000000
     2  C    1.345309   0.000000
     3  C    2.473621   1.457323   0.000000
     4  C    3.715267   2.481830   1.356092   0.000000
     5  C    4.952489   3.833924   2.478882   1.452536   0.000000
     6  C    6.172992   4.962219   3.724336   2.480393   1.358070
     7  C    7.431550   6.289988   4.957952   3.830094   2.479070
     8  C    8.643369   7.442330   6.180868   4.960505   3.725720
     9  C    9.910708   8.759263   7.437111   6.286865   4.958229
    10  C   11.117821   9.922346   8.650555   7.440520   6.181799
    11  C   12.390040  11.233274   9.916440   8.756704   7.437558
    12  C   13.593902  12.402159  11.124394   9.920331   8.651032
    13  C   14.869880  13.709953  12.396275  11.231525   9.917395
[...]
 0102206,-0.02966336,-0.32050904,0.01793763,-0.00358965,-0.01619109,0.0
 0123337,-0.00172971,0.00080784,-0.00015639,0.00035292,0.00055495,-0.00
 005320,0.00010637,-0.00010025,0.00000354,0.00000100,0.00000004,0.00000
 008,-0.00000007,0.00000071,-0.00000001,-0.00000016,-0.00000053,0.00000
 009,0.00000046,0.00000089,0.00000007,-0.00000039,-0.00000005,0.0000001
 1,0.00000125,0.00000168,-0.00000062,-0.00000104,0.00000183,0.00000013,
 0.00000413,0.00000285,0.00000096,-0.00001923,0.00000736,0.00000005,0.0
 0023605,0.00000161,0.00002026,-0.00088264,0.00064134,-0.00001812,-0.00
 168605,0.00031195,0.00055129,0.03242850,0.34446487,-0.00000013,0.00000
 027,-0.00000185,-0.00000035,-0.00000074,-0.00000476,0.00000082,0.00000
 062,-0.00000050,-0.00000122,0.00000102,0.00002003,0.00000241,0.0000002
 5,-0.00000718,-0.00000398,-0.00000505,-0.00008852,0.00000652,0.0000027
 6,0.00003521,-0.00000393,0.00001463,0.00020205,0.00002121,-0.00003786,
 -0.00010333,-0.00018465,-0.00039878,-0.00566855,0.00007466,0.00122658,
 0.00469693,0.00202569,0.01793012,-0.04044157,0.00021274,0.00102960,0.0
 0291146,0.00008538,-0.00017753,-0.00184743,-0.00002342,-0.00005011,-0.
 00024720,-0.00000647,0.00000490,-0.00003295,-0.00000005,0.00000009,0.0
 0000144,0.,-0.00000001,0.00000053,0.00000002,0.00000009,0.00000092,-0.
 00000002,0.00000007,0.00000207,0.00000004,0.00000010,0.00000164,-0.000
 00014,-0.00000062,-0.00000799,0.00000011,0.00000010,0.00000372,-0.0000
 0022,0.00000096,0.00001848,0.00000162,-0.00000033,0.00000602,-0.000013
 41,0.00002026,0.00034712,0.00005940,-0.00003092,0.00026045,0.00019822,
 0.00055135,0.00883506,-0.00230525,-0.02034772,0.02663677,-0.00000320,0
 .00000063,-0.00000003,0.00000391,-0.00000290,0.00000015,-0.00000728,0.
 00000239,-0.00000011,0.00000994,-0.00000507,0.00000025,-0.00001602,0.0
 0000434,-0.00000017,0.00002209,-0.00000945,0.00000042,-0.00003207,0.00
 000775,-0.00000037,0.00006596,-0.00002224,0.00000109,-0.00007044,-0.00
 007954,0.00000539,-0.00005516,-0.00010237,0.00000531,0.00159174,0.0014
 2960,-0.00011397,0.00490243,0.02640844,-0.00167904,-0.06221607,-0.0290
 0329,0.00197985,-0.00051489,-0.03084375,0.00198174,0.00129497,-0.00206
 593,0.00008015,-0.00003441,0.00028573,-0.00001716,-0.00000017,-0.00000
 016,0.00000001,-0.00000006,-0.00000007,0.,0.00000005,0.00000019,0.,-0.
 00000023,-0.00000016,0.00000002,0.00000009,0.00000021,0.,-0.00000055,-
 0.00000039,0.00000004,0.00000045,-0.00000003,0.,-0.00000352,-0.0000010
 6,0.00000012,0.00000879,-0.00000267,0.00000015,-0.00005386,-0.00001932
 ,0.00000163,0.00004347,-0.00024273,0.00001587,-0.00029401,-0.00088399,
 0.00005940,-0.00383231,0.00243237,-0.00009960,0.06400989,0.00002935,-0
 .00002331,0.00000119,-0.00000962,0.00004749,-0.00000296,0.00000701,-0.
 00004669,0.00000283,0.00000318,0.00005381,-0.00000344,-0.00000291,-0.0
 0005379,0.00000337,0.00001722,0.00006381,-0.00000441,-0.00001875,-0.00
 007397,0.00000390,0.00004554,0.00008261,-0.00000424,-0.00001791,-0.000
 09527,0.00000519,0.00041314,0.00052921,-0.00005029,-0.00180680,0.00085
 822,-0.00016241,-0.00357163,-0.01638255,0.00124176,-0.03018485,-0.3193
 9431,0.01782345,-0.00075156,-0.01153316,0.00103819,0.00217965,0.000848
 63,-0.00045223,-0.00017846,0.00043812,-0.00002064,0.00000576,0.0000004
 2,-0.00000004,-0.00000087,0.00000098,-0.00000002,-0.00000052,-0.000006
 90,0.00000047,0.00000037,-0.00000002,0.00000006,0.00000021,-0.00000845
 ,0.00000060,0.00000068,-0.00000005,0.00000010,0.00000013,-0.00000997,0
 .00000070,0.00000273,0.00000123,0.00000014,-0.00000238,-0.00001159,0.0
 0000110,0.00003707,0.00000619,-0.00000022,-0.00024371,0.00009645,0.000
 00357,0.00100737,0.00064904,-0.00003243,0.00244713,-0.00062639,0.00028
 070,0.03301146,0.34360998,-0.00000184,0.00000138,-0.00000139,0.0000005
 8,-0.00000301,-0.00000031,-0.00000040,0.00000286,-0.00000131,-0.000000
 27,-0.00000338,-0.00000014,0.00000029,0.00000332,-0.00000083,-0.000001
 27,-0.00000423,-0.00000398,0.00000131,0.00000372,-0.00001434,-0.000003
 18,-0.00000378,0.00002052,0.00000151,0.00000561,-0.00001522,-0.0000272
 0,-0.00004678,-0.00022045,0.00009016,-0.00018440,-0.00190043,0.0002118
 0,0.00103808,0.00285447,0.00205436,0.01781542,-0.04118455,0.00008383,0
 .00124263,0.00476792,-0.00018762,-0.00042339,-0.00605899,0.00001211,-0
 .00002380,0.00009297,-0.00000036,0.,0.00000047,0.00000006,-0.00000002,
 0.00000063,0.00000004,0.00000047,0.00000054,-0.00000002,0.00000006,0.0
 0000097,0.,0.00000060,0.00000099,-0.00000003,0.00000011,0.00000164,0.,
 0.00000070,0.00000112,-0.00000012,0.00000017,0.00000375,0.00000013,0.0
 0000111,0.00000558,-0.00000193,0.00000017,0.00000675,0.00001594,0.0000
 0356,0.00012639,-0.00005988,-0.00001958,0.00024499,-0.00010053,0.00028
 081,0.00407086,-0.00233984,-0.02025196,0.02735517,0.00000110,-0.000000
 05,-0.00000001,-0.00000165,0.00000047,-0.00000001,0.00000262,-0.000000
 19,-0.00000001,-0.00000403,0.00000035,-0.00000003,0.00000595,0.0000000
 7,-0.00000005,-0.00000808,-0.00000005,0.00000020,0.00001163,0.00000080
 ,-0.00000018,-0.00001397,-0.00000272,-0.00000035,0.00003693,0.00000781
 ,-0.00000050,-0.00000327,0.00006796,-0.00000280,-0.00008893,0.00021422
 ,-0.00001358,0.00141006,-0.00189729,0.00006991,-0.00050643,-0.03078812
 ,0.00197864,-0.06229339,-0.03066015,0.00209177,0.00494807,0.02623603,-
 0.00166808,0.00164293,0.00100717,-0.00008510,0.00000004,0.00000002,0.,
 0.00000003,0.00000014,0.,-0.00000006,0.00000016,0.,0.00000017,0.000000
 23,-0.00000001,-0.00000023,0.00000037,-0.00000002,0.00000039,0.0000004
 6,-0.00000002,-0.00000055,0.00000095,-0.00000004,0.00000140,0.00000129
 ,-0.00000015,-0.00000357,0.00000314,-0.00000015,0.00001268,0.00000422,
 -0.00000022,-0.00005340,0.00003696,-0.00000193,0.00013063,0.00023482,-
 0.00001331,-0.00028846,0.00099484,-0.00005898,-0.00467109,-0.00168545,
 0.00020038,0.06370591,0.00000096,-0.00000324,0.00000013,0.00000280,0.0
 0000358,-0.00000020,-0.00000693,-0.00000550,0.00000034,0.00001123,0.00
 000221,-0.00000054,-0.00001879,-0.00000593,0.00000048,0.00002681,-0.00
 000081,0.00000115,-0.00004497,-0.00000692,0.00000028,0.00005968,-0.000
 01376,-0.00000527,-0.00010979,-0.00000453,0.00000329,0.00008982,-0.000
 04425,0.00001580,-0.00034703,0.00047979,-0.00003419,0.00215201,0.00080
 437,-0.00043832,-0.00060835,-0.01101778,0.00100907,-0.03206683,-0.3205
 0973,0.01797080,-0.00405948,-0.01621271,0.00123798,-0.00122266,0.00113
 917,-0.00016029,0.00000051,0.00000002,0.,-0.00000004,0.00000043,0.,-0.
 00000006,-0.00000023,0.00000005,0.00000023,0.00000053,0.,-0.00000016,-
 0.00000002,0.00000006,0.00000048,0.00000089,0.00000007,-0.00000042,0.0
 0000063,0.00000007,0.00000138,0.00000184,-0.00000064,-0.00000115,0.000
 00278,0.00000007,0.00000454,0.00000331,0.00000094,-0.00001930,0.000008
 79,-0.00000006,0.00023584,0.00000056,0.00002050,-0.00088795,0.00063718
 ,-0.00001740,-0.00165151,0.00032649,0.00056948,0.03493926,0.34410540,-
 0.00000008,0.00000014,-0.00000107,-0.00000016,-0.00000019,0.00000068,0
 .00000041,0.00000029,-0.00000093,-0.00000072,-0.00000046,-0.00000509,0
 .00000114,0.00000035,-0.00000033,-0.00000150,0.00000133,0.00002023,0.0
 0000271,-0.00000003,-0.00000731,-0.00000429,-0.00000485,-0.00009061,0.
 00000692,0.00000249,0.00003561,-0.00000417,0.00001595,0.00021495,0.000
 02181,-0.00003800,-0.00009742,-0.00018548,-0.00041081,-0.00588635,0.00
 007520,0.00121410,0.00483891,0.00218050,0.01796124,-0.04017714,0.00024
 266,0.00103218,0.00291200,0.00005553,-0.00017544,-0.00152325,-0.000000
 03,0.,0.00000018,0.,0.,0.00000056,0.,0.00000005,0.00000051,-0.00000001
 ,0.,0.00000043,0.00000002,0.00000006,0.00000097,-0.00000002,0.00000007
 ,0.00000207,0.00000004,0.00000006,0.00000163,-0.00000015,-0.00000064,-
 0.00000807,0.00000012,0.00000004,0.00000371,-0.00000024,0.00000095,0.0
 0001869,0.00000162,-0.00000044,0.00000583,-0.00001338,0.00002050,0.000
 34974,0.00005977,-0.00003019,0.00026708,0.00019824,0.00056971,0.009140
 68,-0.00246632,-0.02036110,0.02633625,0.00000105,-0.00000150,0.0000000
 8,0.00000063,0.00000247,-0.00000016,-0.00000212,-0.00000250,0.00000017
 ,0.00000364,0.00000199,-0.00000015,-0.00000598,-0.00000204,0.00000016,
 0.00000847,0.00000094,-0.00000012,-0.00001243,-0.00000104,0.00000014,0
 .00001792,-0.00000166,-0.00000005,-0.00002426,0.00000031,0.00000007,0.
 00005751,-0.00001029,0.00000036,-0.00005434,-0.00008953,0.00000587,-0.
 00007684,-0.00008236,0.00000434,0.00164745,0.00142459,-0.00011216,0.00
 470751,0.02631675,-0.00167127,-0.06205630,-0.03213166,0.00216472,-0.00
 143397,-0.03195500,0.00206057,0.00000037,-0.00000005,0.,-0.00000010,0.
 00000006,0.,-0.00000003,-0.00000043,0.00000003,-0.00000006,-0.00000006
 ,0.,0.00000005,-0.00000052,0.00000004,-0.00000018,-0.00000016,0.000000
 02,0.00000010,-0.00000063,0.00000005,-0.00000043,-0.00000039,0.0000000
 4,0.00000050,-0.00000106,0.00000007,-0.00000333,-0.00000096,0.00000011
 ,0.00000822,-0.00000362,0.00000021,-0.00005088,-0.00001853,0.00000159,
 0.00004018,-0.00024287,0.00001576,-0.00028739,-0.00089218,0.00005972,-
 0.00386923,0.00243949,-0.00010277,0.06503170,0.00002393,-0.00001833,0.
 00000094,-0.00000867,0.00003813,-0.00000236,0.00000700,-0.00003643,0.0
 0000222,-0.00000025,0.00004275,-0.00000274,0.00000174,-0.00004036,0.00
 000247,0.00000543,0.00005006,-0.00000322,-0.00000380,-0.00004972,0.000
 00311,0.00001732,0.00006115,-0.00000425,-0.00001645,-0.00007156,0.0000
 0393,0.00004181,0.00008353,-0.00000458,-0.00000906,-0.00009671,0.00000
 483,0.00042745,0.00055683,-0.00005080,-0.00181109,0.00084654,-0.000144
 27,-0.00379070,-0.01696923,0.00128624,-0.03350800,-0.32092819,0.017837
 61,-0.00006270,-0.00946790,0.00092656,0.00000467,0.00000025,-0.0000000
 3,-0.00000077,0.00000072,-0.00000002,-0.00000043,-0.00000563,0.0000003
 8,0.00000016,-0.00000023,0.00000005,0.00000019,-0.00000690,0.00000047,
 0.00000017,-0.00000053,0.00000009,0.00000035,-0.00000831,0.00000058,0.
 00000066,-0.00000049,0.00000013,0.00000029,-0.00000993,0.00000071,0.00
 000280,0.00000078,0.00000020,-0.00000225,-0.00001183,0.00000110,0.0000
 3920,0.00000610,0.00000002,-0.00025401,0.00010377,0.00000186,0.0010487
 7,0.00067999,-0.00003615,0.00262535,-0.00063585,0.00025255,0.03690391,
 0.34377259,-0.00000152,0.00000111,-0.00000090,0.00000054,-0.00000243,-
 0.00000005,-0.00000043,0.00000228,-0.00000067,-0.00000001,-0.00000275,
 -0.00000047,-0.00000008,0.00000249,-0.00000120,-0.00000040,-0.00000319
 ,-0.00000022,0.00000032,0.00000309,-0.00000106,-0.00000124,-0.00000412
 ,-0.00000412,0.00000113,0.00000382,-0.00001126,-0.00000292,-0.00000423
 ,0.00001569,0.00000080,0.00000538,-0.00002144,-0.00002781,-0.00004733,
 -0.00019935,0.00009192,-0.00016626,-0.00162623,0.00022758,0.00108173,0
 .00294674,0.00225153,0.01782822,-0.04285156,0.00004914,0.00114322,0.00
 514403,-0.00000030,0.,0.00000029,0.00000005,-0.00000002,0.00000039,0.0
 0000003,0.00000038,0.00000033,0.,0.00000005,0.00000051,0.,0.00000047,0
 .00000054,0.,0.00000009,0.00000092,-0.00000002,0.00000059,0.00000096,-
 0.00000003,0.00000014,0.00000160,-0.00000001,0.00000072,0.00000130,-0.
 00000013,0.00000022,0.00000423,0.00000012,0.00000111,0.00000529,-0.000
 00206,0.00000041,0.00001056,0.00001647,0.00000178,0.00010567,-0.000062
 70,-0.00002296,0.00022175,-0.00011449,0.00025382,0.00363609,-0.0025838
 3,-0.02021050,0.02859076,0.00000364,-0.00000246,0.00000012,-0.00000178
 ,0.00000538,-0.00000033,0.00000166,-0.00000476,0.00000029,-0.00000134,
 0.00000565,-0.00000034,0.00000184,-0.00000469,0.00000028,-0.00000203,0
 .00000592,-0.00000040,0.00000279,-0.00000482,0.00000028,-0.00000288,0.
 00000598,-0.00000020,0.00000470,-0.00000454,0.00000019,-0.00000334,0.0
 0000360,-0.00000092,0.00002373,-0.00000104,0.00000016,0.00003868,0.000
 07552,-0.00000283,-0.00013764,0.00020705,-0.00001259,0.00179019,-0.001
 83788,0.00005363,-0.00027706,-0.03090607,0.00198311,-0.06602235,-0.041
 34492,0.00283053,0.00000069,-0.00000001,0.,-0.00000013,0.00000011,0.,-
 0.00000010,-0.00000077,0.00000005,0.00000003,-0.00000004,0.,-0.0000000
 6,-0.00000087,0.00000006,0.00000007,-0.00000007,0.,-0.00000013,-0.0000
 0088,0.00000006,0.00000020,0.00000002,0.00000002,-0.00000042,-0.000000
 59,0.00000005,0.00000133,0.00000062,-0.00000011,-0.00000321,0.00000098
 ,-0.00000001,0.00001044,0.00000333,-0.00000017,-0.00005022,0.00003384,
 -0.00000177,0.00013380,0.00023408,-0.00001337,-0.00023349,0.00095411,-
 0.00005662,-0.00467618,-0.00158793,0.00020653,0.06276613,-0.00000294,0
 .00000060,-0.00000007,0.00000311,-0.00000334,0.00000016,-0.00000511,0.
 00000161,-0.00000010,0.00000693,-0.00000432,0.00000026,-0.00001102,0.0
 0000129,-0.00000007,0.00001501,-0.00000613,-0.00000010,-0.00002335,0.0
 0000072,0.00000008,0.00003174,-0.00000966,0.00000190,-0.00005226,-0.00
 000048,-0.00000019,0.00006839,-0.00002313,-0.00000564,-0.00012567,-0.0
 0000153,0.00000332,0.00011234,-0.00005868,0.00002335,-0.00033786,0.000
 43055,-0.00002919,0.00220629,0.00097003,-0.00054147,-0.00077073,-0.009
 64725,0.00091061,-0.04479556,-0.32988740,0.01901547,-0.00000042,0.0000
 0004,0.00000002,0.00000012,0.00000019,0.00000001,0.00000006,0.00000072
 ,-0.00000002,0.00000014,0.00000043,0.,-0.00000007,0.00000098,-0.000000
 02,0.00000028,0.00000071,-0.00000001,-0.00000016,0.00000140,-0.0000000
 1,0.00000057,0.00000124,0.00000008,-0.00000036,0.00000228,-0.00000002,
 0.00000158,0.00000242,-0.00000074,-0.00000094,0.00000469,-0.00000002,0
 .00000497,0.00000396,0.00000074,-0.00001444,0.00000789,-0.00000019,0.0
 0021984,-0.00001771,0.00002098,-0.00096741,0.00054591,-0.00000959,-0.0
 0188647,0.00088998,0.00064933,0.05154734,0.34898382,0.00000015,-0.0000
 0008,-0.00000086,-0.00000019,0.00000014,-0.00000052,0.00000031,-0.0000
 0010,-0.00000046,-0.00000042,0.00000027,0.00000051,0.00000068,-0.00000
 012,-0.00000107,-0.00000097,-0.00000004,-0.00000614,0.00000145,-0.0000
 0004,-0.00000047,-0.00000182,0.00000208,0.00002380,0.00000320,-0.00000
 052,-0.00000912,-0.00000501,-0.00000520,-0.00010488,0.00000802,0.00000
 247,0.00003730,-0.00000515,0.00002360,0.00032217,0.00002178,-0.0000329
 0,-0.00006677,-0.00020142,-0.00051399,-0.00734368,0.00008246,0.0011153
 3,0.00463692,0.00304816,0.01899206,-0.03443373,0.00000002,0.00000002,0
 .00000036,0.,0.00000001,0.00000037,0.,-0.00000002,0.00000039,0.,0.,0.0
 0000056,0.,-0.00000002,0.00000063,-0.00000001,-0.00000001,0.00000053,0
 .00000002,0.,0.00000116,-0.00000002,0.00000009,0.00000263,0.00000004,-
 0.00000002,0.00000196,-0.00000017,-0.00000073,-0.00000911,0.00000011,-
 0.00000003,0.00000425,-0.00000027,0.00000075,0.00001610,0.00000127,-0.
 00000052,0.00000332,-0.00001247,0.00002088,0.00033738,0.00006457,-0.00
 002264,0.00029070,0.00022535,0.00064729,0.01093983,-0.00352971,-0.0209
 8843,0.02310455,-0.00001956,0.00001405,-0.00000076,0.00000823,-0.00003
 045,0.00000187,-0.00000772,0.00002783,-0.00000171,0.00000384,-0.000033
 91,0.00000209,-0.00000673,0.00002969,-0.00000183,0.00000392,-0.0000393
 2,0.00000254,-0.00000977,0.00003469,-0.00000215,0.00000372,-0.00004891
 ,0.00000260,-0.00002090,0.00004877,-0.00000287,-0.00001283,-0.00008272
 ,0.00000741,-0.00009170,0.00014718,-0.00000916,-0.00025904,-0.00036838
 ,0.00001510,-0.00062597,0.00134771,-0.00007920,-0.00265531,-0.00422216
 ,0.00036341,-0.01873671,0.02049326,-0.00113681,-0.23763021,0.13687181,
 -0.00722997,-0.00000379,-0.00000010,0.00000003,0.00000069,-0.00000042,
 0.00000002,0.00000037,0.00000467,-0.00000030,0.00000004,0.00000051,-0.
 00000003,-0.00000017,0.00000576,-0.00000036,0.00000020,0.00000100,-0.0
 0000005,-0.00000033,0.00000701,-0.00000044,0.00000036,0.00000150,-0.00
 000011,-0.00000049,0.00000878,-0.00000054,0.00000074,0.00000168,0.0000
 0005,0.00000083,0.00001170,-0.00000074,0.00000119,-0.00000232,-0.00000
 037,0.00001610,0.00001724,-0.00000103,0.00000517,-0.00007452,0.0000056
 6,0.00012931,0.00012625,-0.00001076,0.00102876,-0.00009510,-0.00004815
 ,0.00663244,-0.00522393,0.00030005,0.25224531,0.00000034,0.00000094,-0
 .00000010,-0.00000180,-0.00000100,0.00000011,0.00000290,0.00000196,-0.
 00000018,-0.00000523,-0.00000162,-0.00000009,0.00000733,0.00000335,-0.
 00000025,-0.00001168,-0.00000259,0.00000108,0.00001578,0.00000640,-0.0
 0000079,-0.00002520,-0.00000538,-0.00000379,0.00003272,0.00001564,-0.0
 0000064,-0.00006347,-0.00001789,0.00002115,0.00005905,0.00006495,-0.00
 000917,-0.00027601,-0.00012674,-0.00008202,-0.00017198,0.00079519,-0.0
 0003465,-0.00209377,-0.00087773,0.00080371,-0.01243086,0.01062941,-0.0
 0032232,0.14138631,-0.16549570,0.00750931,-0.00000010,-0.00000009,0.00
 000001,-0.00000001,0.00000004,0.00000002,-0.00000005,0.00000025,0.,0.0
 0000002,0.00000002,0.,-0.00000016,0.00000042,0.,0.00000006,0.00000004,
 0.00000009,-0.00000033,0.00000075,0.,0.00000019,0.00000008,-0.00000015
 ,-0.00000087,0.00000154,0.00000002,0.00000065,0.00000034,0.00000143,-0
 .00000164,0.00000341,-0.00000017,0.00000010,-0.00000162,-0.00000464,-0
 .00000653,0.00001059,0.00000096,0.00008494,-0.00000852,0.00000923,-0.0
 0037566,0.00039738,-0.00004033,0.00023501,0.00122497,-0.00051667,0.022
 61882,-0.01219182,0.00076041,-0.14897888,0.16557302,0.00000011,-0.0000
 0020,-0.00000066,0.00000006,0.00000031,0.00000053,-0.00000013,-0.00000
 035,-0.00000051,0.00000028,0.00000010,-0.00000363,-0.00000042,-0.00000
 040,0.00000017,0.00000080,0.00000126,0.00001312,-0.00000096,-0.0000009
 2,-0.00000432,0.00000110,-0.00000363,-0.00006797,-0.00000186,-0.000000
 75,0.00000905,0.00000620,0.00002128,0.00030925,-0.00000361,-0.00000976
 ,-0.00007337,0.00000927,-0.00008139,-0.00145184,0.00001664,-0.00004497
 ,0.00023001,0.00022917,0.00081817,0.01158673,0.00093969,-0.00054600,0.
 00420788,-0.00751467,0.00753996,-0.03162608,0.00000003,0.00000001,0.00
 000010,0.,0.00000002,0.00000036,0.,-0.00000003,0.00000029,0.,0.,0.0000
 0018,0.00000001,-0.00000004,0.00000047,0.,0.00000008,0.00000144,0.0000
 0003,-0.00000006,0.00000062,-0.00000003,-0.00000016,-0.00000234,0.0000
 0007,-0.00000004,0.00000182,0.00000011,0.00000143,0.00002304,0.0000001
 0,-0.00000026,0.00000061,-0.00000053,-0.00000463,-0.00007494,0.0000004
 7,0.00000079,0.00002499,-0.00000439,0.00001032,0.00014642,0.00002090,-
 0.00004374,-0.00027993,-0.00006897,-0.00051443,-0.00690893,-0.00145599
 ,0.00094958,0.00225137,0.00782651,-0.00809157,0.02168608\\0.00001132,0
 .00000309,-0.00000027,-0.00000026,0.00000013,0.,-0.00000220,0.00000404
 ,-0.00000023,-0.00000121,-0.00000252,0.00000018,-0.00000023,0.00000389
 ,-0.00000022,-0.00000335,-0.00000151,0.00000014,0.00000297,0.00000219,
 -0.00000013,-0.00000465,-0.00000161,0.00000016,0.00000483,0.00000168,-
 0.00000011,-0.00000306,-0.00000216,0.00000018,0.00000372,0.00000159,-0
 .00000009,0.,-0.00000392,0.00000030,0.00000135,0.00000258,-0.00000019,
 0.00000197,-0.00000393,0.00000020,0.00000048,-0.00000013,0.00000010,-0
 .00001202,-0.00000284,0.00000031,-0.00000176,-0.00000238,0.00000016,-0
 .00000244,-0.00000107,0.00000008,-0.00000192,0.00000017,0.,0.00000142,
 -0.00000230,0.00000013,-0.00000186,0.00000194,-0.00000012,0.00000109,-
 0.00000225,0.00000012,-0.00000189,0.00000145,-0.00000010,0.00000130,-0
 .00000171,0.00000007,-0.00000143,0.00000148,-0.00000011,0.00000137,-0.
 00000151,0.00000005,-0.00000135,0.00000164,-0.00000012,0.00000183,-0.0
 0000144,0.00000005,-0.00000112,0.00000215,-0.00000015,0.00000182,-0.00
 000189,0.00000010,-0.00000149,0.00000220,-0.00000014,0.00000186,-0.000
 00011,-0.00000005,0.00000247,0.00000105,-0.00000011,0.00000245,0.00000
 200,-0.00000017\\\@


 WE'RE IN THE POSITION OF A VISITOR FROM ANOTHER
 DIMENSION WHO COMES TO EARTH AND SEES A CHESS MATCH.
 ASSUMING HE KNOWS IT'S A GAME, HE'S GOT TWO PROBLEMS:
 FIRST, FIGURE OUT THE RULES, AND SECOND, FIGURE OUT HOW TO WIN.
 NINETY PERCENT OF SCIENCE (INCLUDING VIRTUALLY ALL OF CHEMISRY)
 IS IN THAT SECOND CATEGORY.  THEY'RE TRYING TO APPLY
 THE LAWS THAT ARE ALREADY KNOWN.

                     -- SHELDON GLASHOW, 1979
 Job cpu time:       0 days  1 hours  2 minutes 51.5 seconds.
 Elapsed time:       0 days  0 hours 15 minutes 43.2 seconds.
 File lengths (MBytes):  RWF=    394 Int=      0 D2E=      0 Chk=     32 Scr=      1
 Normal termination of Gaussian 16 at Thu Nov  9 20:28:48 2023.
