 Entering Gaussian System, Link 0=g16
 Input=./com/9.com
 Output=./log/9.log
 Initial command:
 /home/shohei/gaussian/g16/l1.exe "/home/shohei/gaussian/scratch/Gau-26387.inp" -scrdir="/home/shohei/gaussian/scratch/"
 Entering Link 1 = /home/shohei/gaussian/g16/l1.exe PID=     26389.
  
 Copyright (c) 1988-2017, Gaussian, Inc.  All Rights Reserved.
  
 This is part of the Gaussian(R) 16 program.  It is based on
 the Gaussian(R) 09 system (copyright 2009, Gaussian, Inc.),
 the Gaussian(R) 03 system (copyright 2003, Gaussian, Inc.),
 the Gaussian(R) 98 system (copyright 1998, Gaussian, Inc.),
 the Gaussian(R) 94 system (copyright 1995, Gaussian, Inc.),
 the Gaussian 92(TM) system (copyright 1992, Gaussian, Inc.),
 the Gaussian 90(TM) system (copyright 1990, Gaussian, Inc.),
 the Gaussian 88(TM) system (copyright 1988, Gaussian, Inc.),
 the Gaussian 86(TM) system (copyright 1986, Carnegie Mellon
 University), and the Gaussian 82(TM) system (copyright 1983,
 Carnegie Mellon University). Gaussian is a federally registered
 trademark of Gaussian, Inc.
  
 This software contains proprietary and confidential information,
 including trade secrets, belonging to Gaussian, Inc.
  
 This software is provided under written license and may be
 used, copied, transmitted, or stored only in accord with that
 written license.
  
 The following legend is applicable only to US Government
 contracts under FAR:
  
                    RESTRICTED RIGHTS LEGEND
  
 Use, reproduction and disclosure by the US Government is
 subject to restrictions as set forth in subparagraphs (a)
 and (c) of the Commercial Computer Software - Restricted
 Rights clause in FAR 52.227-19.
  
 Gaussian, Inc.
 340 Quinnipiac St., Bldg. 40, Wallingford CT 06492
  
  
 ---------------------------------------------------------------
 Warning -- This program may not be used in any manner that
 competes with the business of Gaussian, Inc. or will provide
 assistance to any competitor of Gaussian, Inc.  The licensee
 of this program is prohibited from giving any competitor of
 Gaussian, Inc. access to this program.  By using this program,
 the user acknowledges that Gaussian, Inc. is engaged in the
 business of creating and licensing software in the field of
 computational chemistry and represents and warrants to the
 licensee that it is not a competitor of Gaussian, Inc. and that
 it will not use this program in any manner prohibited above.
 ---------------------------------------------------------------
  

 Cite this work as:
 Gaussian 16, Revision B.01,
 M. J. Frisch, G. W. Trucks, H. B. Schlegel, G. E. Scuseria, 
 M. A. Robb, J. R. Cheeseman, G. Scalmani, V. Barone, 
 G. A. Petersson, H. Nakatsuji, X. Li, M. Caricato, A. V. Marenich, 
 J. Bloino, B. G. Janesko, R. Gomperts, B. Mennucci, H. P. Hratchian, 
 J. V. Ortiz, A. F. Izmaylov, J. L. Sonnenberg, D. Williams-Young, 
 F. Ding, F. Lipparini, F. Egidi, J. Goings, B. Peng, A. Petrone, 
 T. Henderson, D. Ranasinghe, V. G. Zakrzewski, J. Gao, N. Rega, 
 G. Zheng, W. Liang, M. Hada, M. Ehara, K. Toyota, R. Fukuda, 
 J. Hasegawa, M. Ishida, T. Nakajima, Y. Honda, O. Kitao, H. Nakai, 
 T. Vreven, K. Throssell, J. A. Montgomery, Jr., J. E. Peralta, 
 F. Ogliaro, M. J. Bearpark, J. J. Heyd, E. N. Brothers, K. N. Kudin, 
 V. N. Staroverov, T. A. Keith, R. Kobayashi, J. Normand, 
 K. Raghavachari, A. P. Rendell, J. C. Burant, S. S. Iyengar, 
 J. Tomasi, M. Cossi, J. M. Millam, M. Klene, C. Adamo, R. Cammi, 
 J. W. Ochterski, R. L. Martin, K. Morokuma, O. Farkas, 
 J. B. Foresman, and D. J. Fox, Gaussian, Inc., Wallingford CT, 2016.
 
 ******************************************
 Gaussian 16:  EM64L-G16RevB.01 20-Dec-2017
                27-Oct-2023 
 ******************************************
 %chk=./chk/9.chk
 ---------------------------
 # B3LYP/6-31G(d,p) OPT FREQ
 ---------------------------
 1/18=20,19=15,26=3,38=1/1,3;
 2/9=110,12=2,17=6,18=5,40=1/2;
 3/5=1,6=6,7=101,11=2,25=1,30=1,71=1,74=-5/1,2,3;
 4//1;
 5/5=2,38=5/2;
 6/7=2,8=2,9=2,10=2,28=1/1;
 7//1,2,3,16;
 1/18=20,19=15,26=3/3(2);
 2/9=110/2;
 99//99;
 2/9=110/2;
 3/5=1,6=6,7=101,11=2,25=1,30=1,71=1,74=-5/1,2,3;
 4/5=5,16=3,69=1/1;
 5/5=2,38=5/2;
 7//1,2,3,16;
 1/18=20,19=15,26=3/3(-5);
 2/9=110/2;
 6/7=2,8=2,9=2,10=2,19=2,28=1/1;
 99/9=1/99;
 -----
 9poly
 -----
 Symbolic Z-matrix:
 Charge =  0 Multiplicity = 1
 C                     8.90877  -2.16993  -2.14501 
 C                     9.47689  -2.97475  -1.23692 
 C                     10.86634  -3.50077  -1.30437 
 C                     11.74021  -3.2319   -2.2968 
 C                     13.13091  -3.75569  -2.36985 
 C                     13.70423  -4.56508  -1.46158 
 C                     15.09815  -5.02572  -1.6393 
 C                     15.678   -5.83389  -0.74163 
 C                     17.07049  -6.29457  -0.92229 
 C                     17.6499  -7.10504  -0.02677 
 C                     19.04169  -7.56703  -0.20938 
 C                     19.62074  -8.38007   0.68403 
 C                     21.0119  -8.84323   0.49962 
 C                     21.59066  -9.65841   1.39127 
 C                     22.98138  -10.12244   1.20555 
 C                     23.55996  -10.93893   2.09603 
 C                     24.95001  -11.40292   1.90919 
 C                     25.53047  -12.21716   2.79366 
 H                     9.42465  -1.82282  -3.03057 
 H                     8.8791   -3.27056  -0.37994 
 H                     11.15485  -4.13927  -0.48017 
 H                     11.44774  -2.59266  -3.11947 
 H                     13.71319  -3.44822  -3.23456 
 H                     13.16455  -4.89869  -0.58388 
 H                     15.65809  -4.7023   -2.51392 
 H                     15.11967  -6.15895   0.13336 
 H                     17.62892  -5.9693   -1.79716 
 H                     17.0915  -7.43105   0.84785 
 H                     19.5999  -7.24056  -1.08395 
 H                     19.06253  -8.7072    1.55834 
 H                     21.56995  -8.51569  -0.37466 
 H                     21.03262  -9.98645   2.26535 
 H                     23.53945  -9.79423   0.33151 
 H                     23.00261  -11.2679   2.97024 
 H                     25.51669  -11.08083   1.03963 
 H                     24.9974  -12.5612   3.67513 
 H                     26.55266  -12.54659   2.63775 
 H                     7.88429  -1.84238  -1.99991 
 

 GradGradGradGradGradGradGradGradGradGradGradGradGradGradGradGradGradGrad
 Berny optimization.
 Initialization pass.
                           ----------------------------
                           !    Initial Parameters    !
                           ! (Angstroms and Degrees)  !
 --------------------------                            --------------------------
 ! Name  Definition              Value          Derivative Info.                !
 --------------------------------------------------------------------------------
 ! R1    R(1,2)                  1.3398         estimate D2E/DX2                !
 ! R2    R(1,19)                 1.0821         estimate D2E/DX2                !
 ! R3    R(1,38)                 1.0853         estimate D2E/DX2                !
 ! R4    R(2,3)                  1.4872         estimate D2E/DX2                !
 ! R5    R(2,20)                 1.0859         estimate D2E/DX2                !
 ! R6    R(3,4)                  1.3494         estimate D2E/DX2                !
 ! R7    R(3,21)                 1.0818         estimate D2E/DX2                !
 ! R8    R(4,5)                  1.4879         estimate D2E/DX2                !
 ! R9    R(4,22)                 1.0821         estimate D2E/DX2                !
 ! R10   R(5,6)                  1.3449         estimate D2E/DX2                !
 ! R11   R(5,23)                 1.0869         estimate D2E/DX2                !
 ! R12   R(6,7)                  1.4788         estimate D2E/DX2                !
 ! R13   R(6,24)                 1.083          estimate D2E/DX2                !
 ! R14   R(7,8)                  1.3398         estimate D2E/DX2                !
 ! R15   R(7,25)                 1.0877         estimate D2E/DX2                !
 ! R16   R(8,9)                  1.4778         estimate D2E/DX2                !
 ! R17   R(8,26)                 1.0877         estimate D2E/DX2                !
 ! R18   R(9,10)                 1.3396         estimate D2E/DX2                !
 ! R19   R(9,27)                 1.0877         estimate D2E/DX2                !
 ! R20   R(10,11)                1.4778         estimate D2E/DX2                !
 ! R21   R(10,28)                1.0877         estimate D2E/DX2                !
 ! R22   R(11,12)                1.3396         estimate D2E/DX2                !
 ! R23   R(11,29)                1.0877         estimate D2E/DX2                !
 ! R24   R(12,13)                1.4778         estimate D2E/DX2                !
 ! R25   R(12,30)                1.0877         estimate D2E/DX2                !
 ! R26   R(13,14)                1.3396         estimate D2E/DX2                !
 ! R27   R(13,31)                1.0877         estimate D2E/DX2                !
 ! R28   R(14,15)                1.4778         estimate D2E/DX2                !
 ! R29   R(14,32)                1.0877         estimate D2E/DX2                !
 ! R30   R(15,16)                1.3395         estimate D2E/DX2                !
 ! R31   R(15,33)                1.0877         estimate D2E/DX2                !
 ! R32   R(16,17)                1.4773         estimate D2E/DX2                !
 ! R33   R(16,34)                1.0877         estimate D2E/DX2                !
 ! R34   R(17,18)                1.335          estimate D2E/DX2                !
 ! R35   R(17,35)                1.0867         estimate D2E/DX2                !
 ! R36   R(18,36)                1.0861         estimate D2E/DX2                !
 ! R37   R(18,37)                1.0852         estimate D2E/DX2                !
 ! A1    A(2,1,19)             123.0405         estimate D2E/DX2                !
 ! A2    A(2,1,38)             119.4018         estimate D2E/DX2                !
 ! A3    A(19,1,38)            117.5577         estimate D2E/DX2                !
 ! A4    A(1,2,3)              125.3011         estimate D2E/DX2                !
 ! A5    A(1,2,20)             117.7153         estimate D2E/DX2                !
 ! A6    A(3,2,20)             116.9837         estimate D2E/DX2                !
 ! A7    A(2,3,4)              124.6047         estimate D2E/DX2                !
 ! A8    A(2,3,21)             115.0485         estimate D2E/DX2                !
 ! A9    A(4,3,21)             120.3469         estimate D2E/DX2                !
 ! A10   A(3,4,5)              124.8393         estimate D2E/DX2                !
 ! A11   A(3,4,22)             120.1198         estimate D2E/DX2                !
 ! A12   A(5,4,22)             115.0409         estimate D2E/DX2                !
 ! A13   A(4,5,6)              125.2514         estimate D2E/DX2                !
 ! A14   A(4,5,23)             116.1183         estimate D2E/DX2                !
 ! A15   A(6,5,23)             118.6303         estimate D2E/DX2                !
 ! A16   A(5,6,7)              120.5399         estimate D2E/DX2                !
 ! A17   A(5,6,24)             121.3505         estimate D2E/DX2                !
 ! A18   A(7,6,24)             118.1096         estimate D2E/DX2                !
 ! A19   A(6,7,8)              121.0185         estimate D2E/DX2                !
 ! A20   A(6,7,25)             119.2924         estimate D2E/DX2                !
 ! A21   A(8,7,25)             119.6891         estimate D2E/DX2                !
 ! A22   A(7,8,9)              120.9256         estimate D2E/DX2                !
 ! A23   A(7,8,26)             119.808          estimate D2E/DX2                !
 ! A24   A(9,8,26)             119.2664         estimate D2E/DX2                !
 ! A25   A(8,9,10)             120.96           estimate D2E/DX2                !
 ! A26   A(8,9,27)             119.2671         estimate D2E/DX2                !
 ! A27   A(10,9,27)            119.7728         estimate D2E/DX2                !
 ! A28   A(9,10,11)            120.9231         estimate D2E/DX2                !
 ! A29   A(9,10,28)            119.7902         estimate D2E/DX2                !
 ! A30   A(11,10,28)           119.2867         estimate D2E/DX2                !
 ! A31   A(10,11,12)           120.9594         estimate D2E/DX2                !
 ! A32   A(10,11,29)           119.2664         estimate D2E/DX2                !
 ! A33   A(12,11,29)           119.7741         estimate D2E/DX2                !
 ! A34   A(11,12,13)           120.9253         estimate D2E/DX2                !
 ! A35   A(11,12,30)           119.7886         estimate D2E/DX2                !
 ! A36   A(13,12,30)           119.286          estimate D2E/DX2                !
 ! A37   A(12,13,14)           120.9559         estimate D2E/DX2                !
 ! A38   A(12,13,31)           119.2687         estimate D2E/DX2                !
 ! A39   A(14,13,31)           119.7754         estimate D2E/DX2                !
 ! A40   A(13,14,15)           120.931          estimate D2E/DX2                !
 ! A41   A(13,14,32)           119.7864         estimate D2E/DX2                !
 ! A42   A(15,14,32)           119.2826         estimate D2E/DX2                !
 ! A43   A(14,15,16)           120.9517         estimate D2E/DX2                !
 ! A44   A(14,15,33)           119.2797         estimate D2E/DX2                !
 ! A45   A(16,15,33)           119.7686         estimate D2E/DX2                !
 ! A46   A(15,16,17)           120.9157         estimate D2E/DX2                !
 ! A47   A(15,16,34)           119.8227         estimate D2E/DX2                !
 ! A48   A(17,16,34)           119.2615         estimate D2E/DX2                !
 ! A49   A(16,17,18)           121.1242         estimate D2E/DX2                !
 ! A50   A(16,17,35)           119.918          estimate D2E/DX2                !
 ! A51   A(18,17,35)           118.9578         estimate D2E/DX2                !
 ! A52   A(17,18,36)           121.1658         estimate D2E/DX2                !
 ! A53   A(17,18,37)           119.9677         estimate D2E/DX2                !
 ! A54   A(36,18,37)           118.8665         estimate D2E/DX2                !
 ! D1    D(19,1,2,3)            -0.0016         estimate D2E/DX2                !
 ! D2    D(19,1,2,20)         -179.9895         estimate D2E/DX2                !
 ! D3    D(38,1,2,3)           179.9912         estimate D2E/DX2                !
 ! D4    D(38,1,2,20)            0.0034         estimate D2E/DX2                !
 ! D5    D(1,2,3,4)              0.0374         estimate D2E/DX2                !
 ! D6    D(1,2,3,21)          -179.9553         estimate D2E/DX2                !
 ! D7    D(20,2,3,4)          -179.9747         estimate D2E/DX2                !
 ! D8    D(20,2,3,21)            0.0327         estimate D2E/DX2                !
 ! D9    D(2,3,4,5)           -179.97           estimate D2E/DX2                !
 ! D10   D(2,3,4,22)             0.0117         estimate D2E/DX2                !
 ! D11   D(21,3,4,5)             0.0223         estimate D2E/DX2                !
 ! D12   D(21,3,4,22)         -179.9961         estimate D2E/DX2                !
 ! D13   D(3,4,5,6)              0.0252         estimate D2E/DX2                !
 ! D14   D(3,4,5,23)           179.99           estimate D2E/DX2                !
 ! D15   D(22,4,5,6)          -179.9572         estimate D2E/DX2                !
 ! D16   D(22,4,5,23)            0.0075         estimate D2E/DX2                !
 ! D17   D(4,5,6,7)            179.9379         estimate D2E/DX2                !
 ! D18   D(4,5,6,24)            -0.0142         estimate D2E/DX2                !
 ! D19   D(23,5,6,7)            -0.0261         estimate D2E/DX2                !
 ! D20   D(23,5,6,24)         -179.9781         estimate D2E/DX2                !
 ! D21   D(5,6,7,8)           -179.8892         estimate D2E/DX2                !
 ! D22   D(5,6,7,25)             0.0514         estimate D2E/DX2                !
 ! D23   D(24,6,7,8)             0.0643         estimate D2E/DX2                !
 ! D24   D(24,6,7,25)         -179.9951         estimate D2E/DX2                !
 ! D25   D(6,7,8,9)            179.9099         estimate D2E/DX2                !
 ! D26   D(6,7,8,26)            -0.0237         estimate D2E/DX2                !
 ! D27   D(25,7,8,9)            -0.0305         estimate D2E/DX2                !
 ! D28   D(25,7,8,26)         -179.9641         estimate D2E/DX2                !
 ! D29   D(7,8,9,10)          -179.8467         estimate D2E/DX2                !
 ! D30   D(7,8,9,27)             0.0817         estimate D2E/DX2                !
 ! D31   D(26,8,9,10)            0.0872         estimate D2E/DX2                !
 ! D32   D(26,8,9,27)         -179.9844         estimate D2E/DX2                !
 ! D33   D(8,9,10,11)          179.8982         estimate D2E/DX2                !
 ! D34   D(8,9,10,28)           -0.0295         estimate D2E/DX2                !
 ! D35   D(27,9,10,11)          -0.0298         estimate D2E/DX2                !
 ! D36   D(27,9,10,28)        -179.9575         estimate D2E/DX2                !
 ! D37   D(9,10,11,12)        -179.8387         estimate D2E/DX2                !
 ! D38   D(9,10,11,29)           0.0918         estimate D2E/DX2                !
 ! D39   D(28,10,11,12)          0.0894         estimate D2E/DX2                !
 ! D40   D(28,10,11,29)       -179.9801         estimate D2E/DX2                !
 ! D41   D(10,11,12,13)        179.9068         estimate D2E/DX2                !
 ! D42   D(10,11,12,30)         -0.0298         estimate D2E/DX2                !
 ! D43   D(29,11,12,13)         -0.0234         estimate D2E/DX2                !
 ! D44   D(29,11,12,30)       -179.96           estimate D2E/DX2                !
 ! D45   D(11,12,13,14)       -179.8656         estimate D2E/DX2                !
 ! D46   D(11,12,13,31)          0.0804         estimate D2E/DX2                !
 ! D47   D(30,12,13,14)          0.0713         estimate D2E/DX2                !
 ! D48   D(30,12,13,31)       -179.9827         estimate D2E/DX2                !
 ! D49   D(12,13,14,15)        179.9323         estimate D2E/DX2                !
 ! D50   D(12,13,14,32)         -0.0243         estimate D2E/DX2                !
 ! D51   D(31,13,14,15)         -0.0135         estimate D2E/DX2                !
 ! D52   D(31,13,14,32)       -179.9701         estimate D2E/DX2                !
 ! D53   D(13,14,15,16)       -179.9154         estimate D2E/DX2                !
 ! D54   D(13,14,15,33)          0.0534         estimate D2E/DX2                !
 ! D55   D(32,14,15,16)          0.0414         estimate D2E/DX2                !
 ! D56   D(32,14,15,33)       -179.9898         estimate D2E/DX2                !
 ! D57   D(14,15,16,17)        179.9653         estimate D2E/DX2                !
 ! D58   D(14,15,16,34)         -0.0146         estimate D2E/DX2                !
 ! D59   D(33,15,16,17)         -0.0034         estimate D2E/DX2                !
 ! D60   D(33,15,16,34)       -179.9833         estimate D2E/DX2                !
 ! D61   D(15,16,17,18)       -179.9676         estimate D2E/DX2                !
 ! D62   D(15,16,17,35)          0.022          estimate D2E/DX2                !
 ! D63   D(34,16,17,18)          0.0124         estimate D2E/DX2                !
 ! D64   D(34,16,17,35)       -179.998          estimate D2E/DX2                !
 ! D65   D(16,17,18,36)         -0.0034         estimate D2E/DX2                !
 ! D66   D(16,17,18,37)        179.992          estimate D2E/DX2                !
 ! D67   D(35,17,18,36)       -179.9931         estimate D2E/DX2                !
 ! D68   D(35,17,18,37)          0.0023         estimate D2E/DX2                !
 --------------------------------------------------------------------------------
 Trust Radius=3.00D-01 FncErr=1.00D-07 GrdErr=1.00D-06 EigMax=2.50D+02 EigMin=1.00D-04
 Number of steps in this run=    169 maximum allowed number of steps=    228.
 GradGradGradGradGradGradGradGradGradGradGradGradGradGradGradGradGradGrad

                          Input orientation:                          
 ---------------------------------------------------------------------
 Center     Atomic      Atomic             Coordinates (Angstroms)
 Number     Number       Type             X           Y           Z
 ---------------------------------------------------------------------
      1          6           0        8.908774   -2.169932   -2.145013
      2          6           0        9.476889   -2.974755   -1.236924
      3          6           0       10.866335   -3.500768   -1.304367
      4          6           0       11.740209   -3.231898   -2.296801
      5          6           0       13.130907   -3.755686   -2.369850
      6          6           0       13.704233   -4.565081   -1.461584
      7          6           0       15.098150   -5.025721   -1.639304
      8          6           0       15.678003   -5.833886   -0.741630
      9          6           0       17.070487   -6.294574   -0.922287
     10          6           0       17.649900   -7.105045   -0.026770
     11          6           0       19.041686   -7.567026   -0.209380
     12          6           0       19.620738   -8.380065    0.684028
     13          6           0       21.011904   -8.843232    0.499620
     14          6           0       21.590660   -9.658412    1.391265
     15          6           0       22.981380  -10.122437    1.205546
     16          6           0       23.559956  -10.938932    2.096029
     17          6           0       24.950007  -11.402925    1.909190
     18          6           0       25.530470  -12.217158    2.793663
     19          1           0        9.424654   -1.822818   -3.030574
     20          1           0        8.879095   -3.270564   -0.379938
     21          1           0       11.154851   -4.139267   -0.480170
     22          1           0       11.447738   -2.592661   -3.119475
     23          1           0       13.713191   -3.448224   -3.234561
     24          1           0       13.164555   -4.898691   -0.583876
     25          1           0       15.658094   -4.702296   -2.513922
     26          1           0       15.119674   -6.158954    0.133358
     27          1           0       17.628923   -5.969300   -1.797159
     28          1           0       17.091497   -7.431047    0.847845
     29          1           0       19.599897   -7.240556   -1.083952
     30          1           0       19.062529   -8.707201    1.558344
     31          1           0       21.569952   -8.515692   -0.374658
     32          1           0       21.032617   -9.986452    2.265351
     33          1           0       23.539447   -9.794228    0.331512
     34          1           0       23.002610  -11.267903    2.970237
     35          1           0       25.516691  -11.080830    1.039625
     36          1           0       24.997396  -12.561202    3.675130
     37          1           0       26.552658  -12.546587    2.637749
     38          1           0        7.884293   -1.842382   -1.999909
 ---------------------------------------------------------------------
                    Distance matrix (angstroms):
                    1          2          3          4          5
     1  C    0.000000
     2  C    1.339821   0.000000
     3  C    2.511942   1.487212   0.000000
     4  C    3.027843   2.512385   1.349397   0.000000
     5  C    4.515703   3.904513   2.515656   1.487862   0.000000
     6  C    5.403725   4.522173   3.034987   2.516417   1.344905
     7  C    6.835177   5.997245   4.510645   3.863401   2.452902
     8  C    7.824098   6.846442   5.377013   4.969419   3.668476
     9  C    9.226120   8.293547   6.814898   6.299296   4.905270
    10  C   10.259121   9.236984   7.787157   7.421506   6.093400
    11  C   11.642646  10.659744   9.196185   8.744268   7.357394
    12  C   12.701000  11.653545  10.217673   9.873789   8.533989
    13  C   14.071701  13.057992  11.607276  11.192469   9.809540
    14  C   15.146380  14.082688  12.656783  12.326123  10.979780
    15  C   16.507780  15.473406  14.032836  13.642210  12.261761
    16  C   17.593718  16.518760  15.100231  14.778421  13.427887
    17  C   18.947450  17.898309  16.465748  16.092073  14.713312
    18  C   20.040411  18.957455  17.544406  17.228437  15.874745
    19  H    1.082053   2.132339   2.806020   2.808153   4.231884
    20  H    2.080328   1.085949   2.203789   3.444101   4.719428
    21  H    3.419772   2.178146   1.081768   2.113317   2.760946
    22  H    2.752201   2.752134   2.111233   1.082107   2.178904
    23  H    5.089555   4.707545   3.439912   2.195188   1.086881
    24  H    5.291025   4.210330   2.784800   2.782278   2.120683
    25  H    7.218191   6.543884   5.086024   4.190350   2.702499
    26  H    7.725189   6.622523   5.217653   5.088626   3.999617
    27  H    9.518256   8.702691   7.215892   6.513061   5.045811
    28  H   10.178088   9.065708   7.670186   7.493860   6.288729
    29  H   11.880118  10.986162   9.503142   8.905899   7.459603
    30  H   12.631290  11.513425  10.123224   9.922574   8.667892
    31  H   14.272640  13.329953  11.856696  11.324176   9.892215
    32  H   15.084325  13.962975  12.576179  12.360667  11.079014
    33  H   16.682915  15.707347  14.243999  13.754789  12.332844
    34  H   17.537818  16.414068  15.029631  14.804079  13.505571
    35  H   19.114626  18.115363  16.660870  16.202745  14.788167
    36  H   20.017400  18.892178  17.509248  17.275789  15.965352
    37  H   21.020381  19.955324  18.531806  18.180260  16.807718
    38  H    1.085314   2.097803   3.482326   4.109378   5.596834
                    6          7          8          9         10
     6  C    0.000000
     7  C    1.478776   0.000000
     8  C    2.454378   1.339843   0.000000
     9  C    3.822780   2.452389   1.477796   0.000000
    10  C    4.906974   3.665417   2.452600   1.339602   0.000000
    11  C    6.250447   4.904527   3.821181   2.452141   1.477782
    12  C    7.359538   6.091248   4.905170   3.665148   2.452573
    13  C    8.692005   7.356689   6.248788   4.904309   3.821184
    14  C    9.812059   8.532225   7.357700   6.090969   4.905109
    15  C   11.138368   9.808925   8.690367   7.356553   6.248835
    16  C   12.264496  10.978203   9.810146   8.531911   7.357562
    17  C   13.586230  12.260490  11.136027   9.808127   8.689723
    18  C   14.714663  13.423907  12.260325  10.975273   9.807749
    19  H    5.319448   6.662039   7.773822   9.104956  10.226408
    20  H    5.111525   6.583557   7.275066   8.748581   9.578882
    21  H    2.764750   4.204640   4.837252   6.311542   7.154514
    22  H    3.425027   4.629924   5.835652   7.081462   8.270021
    23  H    2.095446   2.636560   3.970714   4.971896   6.257790
    24  H    1.083015   2.206548   2.686429   4.161648   5.029581
    25  H    2.223469   1.087703   2.102834   2.657726   3.990792
    26  H    2.662282   2.104046   1.087660   2.222262   2.706062
    27  H    4.181822   2.705564   2.222289   1.087683   2.103481
    28  H    5.002078   3.993111   2.659947   2.103659   1.087678
    29  H    6.485340   5.047736   4.180569   2.705353   2.222271
    30  H    7.415421   6.284470   5.000084   3.992811   2.659890
    31  H    8.868950   7.460794   6.483965   5.047618   4.180641
    32  H    9.848173   8.664472   7.413341   6.284065   4.999910
    33  H   11.282314   9.893345   8.867820   7.461035   6.484353
    34  H   12.289373  11.076696   9.846642   8.664631   7.413700
    35  H   13.720248  12.344513  11.291726   9.904328   8.878653
    36  H   14.760058  13.528554  12.313230  11.101476   9.872154
    37  H   15.671343  14.354872  13.218875  11.902651  10.768897
    38  H    6.447836   7.893251   8.846315  10.264962  11.267474
                   11         12         13         14         15
    11  C    0.000000
    12  C    1.339594   0.000000
    13  C    2.452171   1.477792   0.000000
    14  C    3.665137   2.452539   1.339593   0.000000
    15  C    4.904420   3.821224   2.452251   1.477807   0.000000
    16  C    6.090929   4.904995   3.665112   2.452458   1.339542
    17  C    7.355999   6.248184   4.903833   3.820574   2.451582
    18  C    8.529145   7.355187   6.087977   4.902653   3.661671
    19  H   11.551725  12.678955  14.000458  15.131453  16.450325
    20  H   11.034805  11.942442  13.380332  14.336165  15.758691
    21  H    8.603780   9.539968  10.965800  11.952797  13.360642
    22  H    9.533153  10.712545  11.985022  13.158666  14.437044
    23  H    7.383028   8.635827   9.814347  11.046231  12.253937
    24  H    6.465363   7.443779   8.849534   9.877012  11.263197
    25  H    4.996628   6.281356   7.408918   8.660769   9.840879
    26  H    4.181185   5.049372   6.485203   7.463390   8.869341
    27  H    2.658885   3.991918   4.997923   6.282591   7.410369
    28  H    2.222488   2.706388   4.181521   5.049646   6.485542
    29  H    1.087686   2.103490   2.658953   3.991975   4.998146
    30  H    2.103636   1.087678   2.222490   2.706319   4.181477
    31  H    2.705441   2.222306   1.087686   2.103502   2.659098
    32  H    3.992709   2.659786   2.103613   1.087680   2.222466
    33  H    5.048054   4.180957   2.705759   2.222452   1.087702
    34  H    6.284535   5.000341   3.993231   2.660304   2.103967
    35  H    7.472117   6.494832   5.058810   4.190542   2.715483
    36  H    8.689171   7.438887   6.308036   5.024747   4.013819
    37  H    9.450760   8.320363   6.999028   5.875092   4.547718
    38  H   12.667476  13.699962  15.086209  16.138615  17.514459
                   16         17         18         19         20
    16  C    0.000000
    17  C    1.477309   0.000000
    18  C    2.450201   1.334993   0.000000
    19  H   17.583865  18.900166  20.034005   0.000000
    20  H   16.746997  18.156255  19.167200   3.069117   0.000000
    21  H   14.379112  15.772638  16.811566   3.855395   2.437981
    22  H   15.606650  16.888443  18.053241   2.166432   3.816090
    23  H   13.471624  14.696988  15.902257   4.590763   5.616842
    24  H   12.317904  13.690044  14.760880   5.425328   4.588851
    25  H   11.071888  12.280147  13.494719   6.885789   7.249729
    26  H    9.896394  11.282210  12.335467   7.825969   6.895730
    27  H    8.662061   9.841726  11.070042   9.274948   9.265591
    28  H    7.463523   8.868960   9.894915  10.260353   9.287659
    29  H    6.282700   7.409986   8.658762  11.690885  11.453910
    30  H    5.049413   6.484783   7.461908  12.702029  11.705396
    31  H    3.992055   4.997684   6.278919  14.119373  13.732051
    32  H    2.706165   4.180812   5.048351  15.147163  14.135373
    33  H    2.103399   2.658318   3.987098  16.555192  16.062075
    34  H    1.087702   2.221802   2.705982  17.594893  16.572711
    35  H    2.228214   1.086747   2.089996  19.006077  18.434343
    36  H    2.681708   2.112438   1.086056  20.069620  19.040986
    37  H    3.440099   2.099345   1.085219  20.988035  20.186774
    38  H   18.580913  19.948023  21.023841   1.853474   2.377739
                   21         22         23         24         25
    21  H    0.000000
    22  H    3.073061   0.000000
    23  H    3.822213   2.424358   0.000000
    24  H    2.150905   3.833340   3.070991   0.000000
    25  H    4.973162   4.748089   2.423770   3.159333   0.000000
    26  H    4.491701   6.064856   4.546331   2.434169   3.069176
    27  H    6.855443   7.166398   4.873900   4.748562   2.450147
    28  H    6.916879   8.426246   6.628866   4.887077   4.560944
    29  H    9.016727   9.602291   7.325313   6.866443   4.901571
    30  H    9.356973  10.828419   8.901921   7.340297   6.649271
    31  H   11.297724  12.044730   9.776858   9.152987   7.353129
    32  H   11.802446  13.248940  11.250397   9.793355   8.924643
    33  H   13.638755  14.490732  12.228816  11.508371   9.805101
    34  H   14.251041  15.679907  13.635989  12.246873  11.274978
    35  H   16.023656  16.949412  14.691765  13.907907  12.268062
    36  H   16.727569  18.141987  16.066221  14.726484  13.685370
    37  H   17.818443  18.983806  16.796313  15.751523  14.379296
    38  H    4.275726   3.809788   6.170830   6.263173   8.299114
                   26         27         28         29         30
    26  H    0.000000
    27  H    3.171623   0.000000
    28  H    2.452916   3.069459   0.000000
    29  H    4.766981   2.451427   3.171782   0.000000
    30  H    4.906145   4.561878   2.453232   3.069453   0.000000
    31  H    6.886100   4.902992   4.767340   2.451568   3.171804
    32  H    7.359214   6.650310   4.906307   4.561849   2.453077
    33  H    9.173171   7.354971   6.886747   4.903553   4.767550
    34  H    9.812743   8.926352   7.359842   6.650897   4.906615
    35  H   11.538811   9.817941   9.183768   7.366528   6.896331
    36  H   12.292369  11.300155   9.839475   8.949365   7.386254
    37  H   13.333677  11.939939  10.903489   9.505046   8.485754
    38  H    8.691051  10.584441  11.140713  12.931924  13.591905
                   31         32         33         34         35
    31  H    0.000000
    32  H    3.069448   0.000000
    33  H    2.451987   3.171890   0.000000
    34  H    4.562400   2.453539   3.069655   0.000000
    35  H    4.914965   4.775667   2.462978   3.175352   0.000000
    36  H    6.671905   4.933183   4.578378   2.479651   3.067092
    37  H    7.081671   6.096214   4.687606   3.787931   2.403262
    38  H   15.312471  16.043589  17.713024  18.496116  20.136761
                   36         37         38
    36  H    0.000000
    37  H    1.869549   0.000000
    38  H   20.975163  22.013535   0.000000
 Stoichiometry    C18H20
 Framework group  C1[X(C18H20)]
 Deg. of freedom   108
 Full point group                 C1      NOp   1
 Largest Abelian subgroup         C1      NOp   1
 Largest concise Abelian subgroup C1      NOp   1
                         Standard orientation:                         
 ---------------------------------------------------------------------
 Center     Atomic      Atomic             Coordinates (Angstroms)
 Number     Number       Type             X           Y           Z
 ---------------------------------------------------------------------
      1          6           0       -9.808261    0.509958    0.015929
      2          6           0       -8.715641    1.285296    0.003558
      3          6           0       -7.312342    0.792811    0.000483
      4          6           0       -6.957006   -0.508931    0.009114
      5          6           0       -5.555121   -1.007372    0.006735
      6          6           0       -4.455839   -0.232622   -0.003805
      7          6           0       -3.107905   -0.840777   -0.003753
      8          6           0       -2.006344   -0.078101   -0.011980
      9          6           0       -0.660285   -0.688021   -0.009917
     10          6           0        0.441541    0.073875   -0.015065
     11          6           0        1.787194   -0.536895   -0.010745
     12          6           0        2.889495    0.224317   -0.012655
     13          6           0        4.234790   -0.387246   -0.006270
     14          6           0        5.337488    0.373389   -0.005481
     15          6           0        6.682526   -0.238758    0.002404
     16          6           0        7.785450    0.521457    0.004890
     17          6           0        9.129646   -0.091326    0.013542
     18          6           0       10.231570    0.662305    0.016694
     19          1           0       -9.764425   -0.571169    0.024984
     20          1           0       -8.860146    2.361556   -0.004752
     21          1           0       -6.555677    1.565846   -0.009351
     22          1           0       -7.716968   -1.279203    0.018879
     23          1           0       -5.431199   -2.087135    0.014832
     24          1           0       -4.528115    0.847949   -0.011761
     25          1           0       -3.012929   -1.924297    0.004067
     26          1           0       -2.099067    1.005575   -0.019214
     27          1           0       -0.567548   -1.771722   -0.002941
     28          1           0        0.349133    1.157602   -0.021341
     29          1           0        1.879220   -1.620664   -0.004799
     30          1           0        2.797742    1.308105   -0.017942
     31          1           0        4.326217   -1.471072   -0.001270
     32          1           0        5.246269    1.457228   -0.009987
     33          1           0        6.773694   -1.322624    0.006741
     34          1           0        7.695305    1.605409    0.000833
     35          1           0        9.232113   -1.173224    0.017621
     36          1           0       10.170900    1.746658    0.012933
     37          1           0       11.209719    0.192321    0.023197
     38          1           0      -10.789979    0.972705    0.017206
 ---------------------------------------------------------------------
 Rotational constants (GHZ):           4.1923883           0.0547830           0.0540767
 Standard basis: 6-31G(d,p) (6D, 7F)
 There are   370 symmetry adapted cartesian basis functions of A   symmetry.
 There are   370 symmetry adapted basis functions of A   symmetry.
   370 basis functions,   644 primitive gaussians,   370 cartesian basis functions
    64 alpha electrons       64 beta electrons
       nuclear repulsion energy       947.6209167893 Hartrees.
 NAtoms=   38 NActive=   38 NUniq=   38 SFac= 1.00D+00 NAtFMM=   60 NAOKFM=F Big=F
 Integral buffers will be    131072 words long.
 Raffenetti 2 integral format.
 Two-electron integral symmetry is turned on.
 One-electron integrals computed using PRISM.
 NBasis=   370 RedAO= T EigKep=  1.08D-03  NBF=   370
 NBsUse=   370 1.00D-06 EigRej= -1.00D+00 NBFU=   370
 ExpMin= 1.61D-01 ExpMax= 3.05D+03 ExpMxC= 4.57D+02 IAcc=3 IRadAn=         5 AccDes= 0.00D+00
 Harris functional with IExCor=  402 and IRadAn=       5 diagonalized for initial guess.
 HarFok:  IExCor=  402 AccDes= 0.00D+00 IRadAn=         5 IDoV= 1 UseB2=F ITyADJ=14
 ICtDFT=  3500011 ScaDFX=  1.000000  1.000000  1.000000  1.000000
 FoFCou: FMM=F IPFlag=           0 FMFlag=      100000 FMFlg1=           0
         NFxFlg=           0 DoJE=T BraDBF=F KetDBF=T FulRan=T
         wScrn=  0.000000 ICntrl=       500 IOpCl=  0 I1Cent=   200000004 NGrid=           0
         NMat0=    1 NMatS0=      1 NMatT0=    0 NMatD0=    1 NMtDS0=    0 NMtDT0=    0
 Petite list used in FoFCou.
 Requested convergence on RMS density matrix=1.00D-08 within 128 cycles.
 Requested convergence on MAX density matrix=1.00D-06.
 Requested convergence on             energy=1.00D-06.
 No special actions if energy rises.
 Integral accuracy reduced to 1.0D-05 until final iterations.
 Initial convergence to 1.0D-05 achieved.  Increase integral accuracy.
 SCF Done:  E(RB3LYP) =  -697.846829707     A.U. after   13 cycles
            NFock= 13  Conv=0.79D-08     -V/T= 2.0101

 **********************************************************************

            Population analysis using the SCF Density.

 **********************************************************************

 Orbital symmetries:
       Occupied  (A) (A) (A) (A) (A) (A) (A) (A) (A) (A) (A) (A)
                 (A) (A) (A) (A) (A) (A) (A) (A) (A) (A) (A) (A)
                 (A) (A) (A) (A) (A) (A) (A) (A) (A) (A) (A) (A)
                 (A) (A) (A) (A) (A) (A) (A) (A) (A) (A) (A) (A)
                 (A) (A) (A) (A) (A) (A) (A) (A) (A) (A) (A) (A)
                 (A) (A) (A) (A)
       Virtual   (A) (A) (A) (A) (A) (A) (A) (A) (A) (A) (A) (A)
                 (A) (A) (A) (A) (A) (A) (A) (A) (A) (A) (A) (A)
                 (A) (A) (A) (A) (A) (A) (A) (A) (A) (A) (A) (A)
                 (A) (A) (A) (A) (A) (A) (A) (A) (A) (A) (A) (A)
                 (A) (A) (A) (A) (A) (A) (A) (A) (A) (A) (A) (A)
                 (A) (A) (A) (A) (A) (A) (A) (A) (A) (A) (A) (A)
                 (A) (A) (A) (A) (A) (A) (A) (A) (A) (A) (A) (A)
                 (A) (A) (A) (A) (A) (A) (A) (A) (A) (A) (A) (A)
                 (A) (A) (A) (A) (A) (A) (A) (A) (A) (A) (A) (A)
                 (A) (A) (A) (A) (A) (A) (A) (A) (A) (A) (A) (A)
                 (A) (A) (A) (A) (A) (A) (A) (A) (A) (A) (A) (A)
                 (A) (A) (A) (A) (A) (A) (A) (A) (A) (A) (A) (A)
                 (A) (A) (A) (A) (A) (A) (A) (A) (A) (A) (A) (A)
                 (A) (A) (A) (A) (A) (A) (A) (A) (A) (A) (A) (A)
                 (A) (A) (A) (A) (A) (A) (A) (A) (A) (A) (A) (A)
                 (A) (A) (A) (A) (A) (A) (A) (A) (A) (A) (A) (A)
                 (A) (A) (A) (A) (A) (A) (A) (A) (A) (A) (A) (A)
                 (A) (A) (A) (A) (A) (A) (A) (A) (A) (A) (A) (A)
                 (A) (A) (A) (A) (A) (A) (A) (A) (A) (A) (A) (A)
                 (A) (A) (A) (A) (A) (A) (A) (A) (A) (A) (A) (A)
                 (A) (A) (A) (A) (A) (A) (A) (A) (A) (A) (A) (A)
                 (A) (A) (A) (A) (A) (A) (A) (A) (A) (A) (A) (A)
                 (A) (A) (A) (A) (A) (A) (A) (A) (A) (A) (A) (A)
                 (A) (A) (A) (A) (A) (A) (A) (A) (A) (A) (A) (A)
                 (A) (A) (A) (A) (A) (A) (A) (A) (A) (A) (A) (A)
                 (A) (A) (A) (A) (A) (A)
 The electronic state is 1-A.
 Alpha  occ. eigenvalues --  -10.19264 -10.19258 -10.19246 -10.19197 -10.19171
 Alpha  occ. eigenvalues --  -10.19168 -10.19157 -10.19151 -10.19143 -10.19124
 Alpha  occ. eigenvalues --  -10.19112 -10.19083 -10.19083 -10.19067 -10.19051
 Alpha  occ. eigenvalues --  -10.18976 -10.17998 -10.17950  -0.82848  -0.82176
 Alpha  occ. eigenvalues --   -0.81176  -0.79862  -0.78183  -0.76206  -0.73948
 Alpha  occ. eigenvalues --   -0.71444  -0.69378  -0.63834  -0.61630  -0.58440
 Alpha  occ. eigenvalues --   -0.57016  -0.56502  -0.55978  -0.55016  -0.54592
 Alpha  occ. eigenvalues --   -0.51614  -0.49237  -0.47975  -0.47355  -0.45690
 Alpha  occ. eigenvalues --   -0.45513  -0.43917  -0.42899  -0.41266  -0.40463
 Alpha  occ. eigenvalues --   -0.39502  -0.38615  -0.38009  -0.37542  -0.36971
 Alpha  occ. eigenvalues --   -0.36172  -0.35540  -0.35155  -0.35107  -0.34314
 Alpha  occ. eigenvalues --   -0.34238  -0.33213  -0.33061  -0.31392  -0.29246
 Alpha  occ. eigenvalues --   -0.26679  -0.23751  -0.20600  -0.17792
 Alpha virt. eigenvalues --   -0.07161  -0.04321  -0.00603   0.02917   0.05707
 Alpha virt. eigenvalues --    0.07954   0.08268   0.09069   0.09416   0.09873
 Alpha virt. eigenvalues --    0.10450   0.11292   0.12233   0.12371   0.12621
 Alpha virt. eigenvalues --    0.13755   0.13929   0.14385   0.14549   0.14896
 Alpha virt. eigenvalues --    0.15469   0.16343   0.16586   0.18873   0.19300
 Alpha virt. eigenvalues --    0.19884   0.20505   0.22082   0.23771   0.25941
 Alpha virt. eigenvalues --    0.28631   0.28909   0.30765   0.32212   0.32678
 Alpha virt. eigenvalues --    0.33185   0.35342   0.36160   0.36999   0.38204
 Alpha virt. eigenvalues --    0.39005   0.40912   0.41823   0.42121   0.43391
 Alpha virt. eigenvalues --    0.45946   0.48109   0.49036   0.51604   0.52037
 Alpha virt. eigenvalues --    0.52909   0.53723   0.54182   0.54334   0.55802
 Alpha virt. eigenvalues --    0.56351   0.57318   0.57674   0.57902   0.58637
 Alpha virt. eigenvalues --    0.58812   0.59093   0.59518   0.59956   0.60401
 Alpha virt. eigenvalues --    0.60901   0.61729   0.62298   0.62962   0.63531
 Alpha virt. eigenvalues --    0.64475   0.64978   0.65160   0.65478   0.66163
 Alpha virt. eigenvalues --    0.67421   0.67820   0.68626   0.69064   0.69753
 Alpha virt. eigenvalues --    0.71285   0.72315   0.75213   0.75735   0.78735
 Alpha virt. eigenvalues --    0.79603   0.81024   0.81552   0.82733   0.83680
 Alpha virt. eigenvalues --    0.84468   0.84724   0.85373   0.86062   0.86424
 Alpha virt. eigenvalues --    0.86657   0.87031   0.87477   0.87873   0.88911
 Alpha virt. eigenvalues --    0.89317   0.90257   0.91287   0.91552   0.92792
 Alpha virt. eigenvalues --    0.93250   0.95075   0.95705   0.97729   0.97788
 Alpha virt. eigenvalues --    1.02659   1.03308   1.03716   1.05395   1.05534
 Alpha virt. eigenvalues --    1.06093   1.07107   1.08369   1.09635   1.10245
 Alpha virt. eigenvalues --    1.10712   1.13793   1.17325   1.18205   1.19442
 Alpha virt. eigenvalues --    1.22135   1.24418   1.27804   1.29107   1.29307
 Alpha virt. eigenvalues --    1.29709   1.30313   1.30973   1.31025   1.31520
 Alpha virt. eigenvalues --    1.32370   1.32568   1.33034   1.33532   1.34525
 Alpha virt. eigenvalues --    1.36454   1.37744   1.38155   1.38894   1.40830
 Alpha virt. eigenvalues --    1.43279   1.45190   1.46086   1.47258   1.48340
 Alpha virt. eigenvalues --    1.48588   1.49239   1.50674   1.51654   1.51819
 Alpha virt. eigenvalues --    1.53192   1.57588   1.75105   1.75528   1.76433
 Alpha virt. eigenvalues --    1.76629   1.76918   1.77299   1.78088   1.78592
 Alpha virt. eigenvalues --    1.83026   1.86105   1.86227   1.87278   1.88784
 Alpha virt. eigenvalues --    1.89903   1.92038   1.92750   1.93035   1.93381
 Alpha virt. eigenvalues --    1.94376   1.94708   1.95034   1.96603   1.97761
 Alpha virt. eigenvalues --    1.98220   2.00433   2.02285   2.02925   2.04214
 Alpha virt. eigenvalues --    2.05949   2.06535   2.08764   2.09338   2.09849
 Alpha virt. eigenvalues --    2.11294   2.12374   2.15075   2.15901   2.16728
 Alpha virt. eigenvalues --    2.18036   2.18061   2.21031   2.21245   2.22039
 Alpha virt. eigenvalues --    2.23414   2.23964   2.26390   2.26647   2.29414
 Alpha virt. eigenvalues --    2.32130   2.32444   2.35197   2.37230   2.38232
 Alpha virt. eigenvalues --    2.40422   2.41534   2.41626   2.44888   2.45234
 Alpha virt. eigenvalues --    2.46602   2.46864   2.48545   2.48704   2.50304
 Alpha virt. eigenvalues --    2.50821   2.50952   2.51098   2.52676   2.52692
 Alpha virt. eigenvalues --    2.53090   2.53453   2.54574   2.56137   2.56892
 Alpha virt. eigenvalues --    2.58336   2.58564   2.61072   2.61085   2.62123
 Alpha virt. eigenvalues --    2.62233   2.63944   2.64783   2.65792   2.67808
 Alpha virt. eigenvalues --    2.68459   2.68609   2.69597   2.69809   2.70379
 Alpha virt. eigenvalues --    2.70776   2.71275   2.73003   2.74006   2.78730
 Alpha virt. eigenvalues --    2.79814   2.82134   2.85037   2.86622   2.86850
 Alpha virt. eigenvalues --    2.89213   2.91288   2.91551   2.92150   2.92850
 Alpha virt. eigenvalues --    2.94210   2.96132   2.97326   2.98883   2.99694
 Alpha virt. eigenvalues --    3.00383   3.05606   3.16236   3.26206   3.28007
 Alpha virt. eigenvalues --    3.32855   3.35393   3.36492   3.38202   3.38796
 Alpha virt. eigenvalues --    3.41295   3.44616   3.48105   3.49912   3.53244
 Alpha virt. eigenvalues --    3.54589   3.58888   3.61323   3.64012   3.66006
 Alpha virt. eigenvalues --    3.67067   3.71024   3.78254   4.11653   4.13711
 Alpha virt. eigenvalues --    4.13900   4.14207   4.14780   4.15772   4.17561
 Alpha virt. eigenvalues --    4.20286   4.25386   4.27909   4.32488   4.38899
 Alpha virt. eigenvalues --    4.46005   4.53073   4.60177   4.66915   4.72117
 Alpha virt. eigenvalues --    4.75234
          Condensed to atoms (all electrons):
               1          2          3          4          5          6
     1  C    4.950997   0.646043  -0.046100  -0.020449   0.000249  -0.000005
     2  C    0.646043   4.734264   0.424016  -0.027599   0.004245   0.000241
     3  C   -0.046100   0.424016   4.859919   0.614386  -0.033242  -0.017805
     4  C   -0.020449  -0.027599   0.614386   4.861270   0.401982  -0.031770
     5  C    0.000249   0.004245  -0.033242   0.401982   4.889462   0.586368
     6  C   -0.000005   0.000241  -0.017805  -0.031770   0.586368   4.854166
     7  C    0.000000  -0.000004   0.000302   0.004010  -0.017051   0.412415
     8  C   -0.000000   0.000000   0.000012  -0.000232   0.002688  -0.018956
     9  C   -0.000000   0.000000  -0.000000   0.000002  -0.000256   0.003697
    10  C    0.000000  -0.000000  -0.000000  -0.000000   0.000004  -0.000260
    11  C    0.000000   0.000000  -0.000000   0.000000  -0.000000   0.000002
    12  C    0.000000   0.000000   0.000000  -0.000000  -0.000000  -0.000000
    13  C    0.000000   0.000000  -0.000000   0.000000   0.000000   0.000000
    14  C    0.000000   0.000000   0.000000   0.000000   0.000000   0.000000
    15  C    0.000000   0.000000   0.000000   0.000000  -0.000000   0.000000
    16  C    0.000000   0.000000   0.000000   0.000000   0.000000  -0.000000
    17  C    0.000000   0.000000   0.000000   0.000000   0.000000   0.000000
    18  C    0.000000   0.000000   0.000000   0.000000   0.000000   0.000000
    19  H    0.378392  -0.029781  -0.014994   0.004474  -0.000006   0.000001
    20  H   -0.054898   0.374930  -0.038662   0.005131  -0.000143   0.000006
    21  H    0.006158  -0.042984   0.369817  -0.052748  -0.012747   0.003168
    22  H    0.003538  -0.012022  -0.051961   0.368715  -0.038701   0.005228
    23  H    0.000006  -0.000139   0.005205  -0.039289   0.375056  -0.058210
    24  H    0.000001  -0.000000   0.003404  -0.011719  -0.046102   0.374677
    25  H   -0.000000   0.000000  -0.000002   0.000150  -0.005123  -0.048298
    26  H    0.000000  -0.000000  -0.000002   0.000000   0.000555  -0.009471
    27  H   -0.000000   0.000000   0.000000  -0.000000  -0.000004   0.000242
    28  H   -0.000000   0.000000  -0.000000   0.000000  -0.000000  -0.000004
    29  H    0.000000  -0.000000   0.000000   0.000000   0.000000  -0.000000
    30  H    0.000000   0.000000   0.000000  -0.000000   0.000000   0.000000
    31  H    0.000000   0.000000  -0.000000   0.000000   0.000000  -0.000000
    32  H    0.000000   0.000000   0.000000  -0.000000   0.000000  -0.000000
    33  H    0.000000   0.000000   0.000000   0.000000  -0.000000   0.000000
    34  H    0.000000   0.000000   0.000000   0.000000   0.000000  -0.000000
    35  H    0.000000   0.000000   0.000000   0.000000   0.000000   0.000000
    36  H    0.000000   0.000000   0.000000   0.000000   0.000000   0.000000
    37  H    0.000000   0.000000   0.000000   0.000000   0.000000   0.000000
    38  H    0.373110  -0.020559   0.004926   0.000187  -0.000002   0.000000
               7          8          9         10         11         12
     1  C    0.000000  -0.000000  -0.000000   0.000000   0.000000   0.000000
     2  C   -0.000004   0.000000   0.000000  -0.000000   0.000000   0.000000
     3  C    0.000302   0.000012  -0.000000  -0.000000  -0.000000   0.000000
     4  C    0.004010  -0.000232   0.000002  -0.000000   0.000000  -0.000000
     5  C   -0.017051   0.002688  -0.000256   0.000004  -0.000000  -0.000000
     6  C    0.412415  -0.018956   0.003697  -0.000260   0.000002  -0.000000
     7  C    4.863956   0.562480  -0.017334   0.002560  -0.000253   0.000004
     8  C    0.562480   4.887975   0.397118  -0.017295   0.003663  -0.000256
     9  C   -0.017334   0.397118   4.881692   0.563475  -0.017497   0.002570
    10  C    0.002560  -0.017295   0.563475   4.880499   0.397678  -0.017527
    11  C   -0.000253   0.003663  -0.017497   0.397678   4.880571   0.564077
    12  C    0.000004  -0.000256   0.002570  -0.017527   0.564077   4.882044
    13  C   -0.000000   0.000002  -0.000256   0.003675  -0.017338   0.396223
    14  C   -0.000000  -0.000000   0.000004  -0.000256   0.002546  -0.017295
    15  C    0.000000   0.000000  -0.000000   0.000002  -0.000256   0.003647
    16  C    0.000000   0.000000  -0.000000  -0.000000   0.000004  -0.000255
    17  C   -0.000000   0.000000   0.000000   0.000000  -0.000000   0.000002
    18  C    0.000000  -0.000000   0.000000   0.000000  -0.000000  -0.000000
    19  H    0.000000   0.000000  -0.000000   0.000000  -0.000000   0.000000
    20  H    0.000000  -0.000000  -0.000000   0.000000  -0.000000   0.000000
    21  H    0.000062  -0.000002  -0.000000   0.000000  -0.000000   0.000000
    22  H   -0.000127   0.000002  -0.000000   0.000000  -0.000000   0.000000
    23  H   -0.010407   0.000589  -0.000005  -0.000000   0.000000   0.000000
    24  H   -0.048244  -0.005748   0.000255  -0.000003  -0.000000   0.000000
    25  H    0.381016  -0.052973  -0.009278   0.000553  -0.000004  -0.000000
    26  H   -0.052395   0.380276  -0.047773  -0.005311   0.000248  -0.000004
    27  H   -0.005265  -0.047977   0.380943  -0.052694  -0.009291   0.000543
    28  H    0.000538  -0.009278  -0.052788   0.380874  -0.047836  -0.005275
    29  H   -0.000004   0.000251  -0.005281  -0.047915   0.380891  -0.052768
    30  H   -0.000000  -0.000004   0.000541  -0.009287  -0.052730   0.380896
    31  H    0.000000  -0.000000  -0.000004   0.000251  -0.005281  -0.047921
    32  H    0.000000   0.000000  -0.000000  -0.000004   0.000542  -0.009286
    33  H    0.000000  -0.000000   0.000000  -0.000000  -0.000004   0.000252
    34  H    0.000000  -0.000000   0.000000   0.000000  -0.000000  -0.000004
    35  H   -0.000000   0.000000   0.000000  -0.000000   0.000000  -0.000000
    36  H    0.000000  -0.000000   0.000000  -0.000000   0.000000   0.000000
    37  H    0.000000   0.000000   0.000000   0.000000  -0.000000   0.000000
    38  H   -0.000000   0.000000   0.000000  -0.000000   0.000000   0.000000
              13         14         15         16         17         18
     1  C    0.000000   0.000000   0.000000   0.000000   0.000000   0.000000
     2  C    0.000000   0.000000   0.000000   0.000000   0.000000   0.000000
     3  C   -0.000000   0.000000   0.000000   0.000000   0.000000   0.000000
     4  C    0.000000   0.000000   0.000000   0.000000   0.000000   0.000000
     5  C    0.000000   0.000000  -0.000000   0.000000   0.000000   0.000000
     6  C    0.000000   0.000000   0.000000  -0.000000   0.000000   0.000000
     7  C   -0.000000  -0.000000   0.000000   0.000000  -0.000000   0.000000
     8  C    0.000002  -0.000000   0.000000   0.000000   0.000000  -0.000000
     9  C   -0.000256   0.000004  -0.000000  -0.000000   0.000000   0.000000
    10  C    0.003675  -0.000256   0.000002  -0.000000   0.000000   0.000000
    11  C   -0.017338   0.002546  -0.000256   0.000004  -0.000000  -0.000000
    12  C    0.396223  -0.017295   0.003647  -0.000255   0.000002  -0.000000
    13  C    4.880850   0.563513  -0.016568   0.002514  -0.000268   0.000005
    14  C    0.563513   4.887580   0.393018  -0.018401   0.004045  -0.000276
    15  C   -0.016568   0.393018   4.868509   0.577746  -0.019976   0.002701
    16  C    0.002514  -0.018401   0.577746   4.861464   0.421035  -0.031462
    17  C   -0.000268   0.004045  -0.019976   0.421035   4.739994   0.618694
    18  C    0.000005  -0.000276   0.002701  -0.031462   0.618694   4.965504
    19  H    0.000000   0.000000   0.000000   0.000000   0.000000   0.000000
    20  H    0.000000   0.000000   0.000000   0.000000   0.000000   0.000000
    21  H   -0.000000   0.000000   0.000000   0.000000   0.000000   0.000000
    22  H   -0.000000   0.000000   0.000000   0.000000   0.000000   0.000000
    23  H   -0.000000   0.000000  -0.000000   0.000000   0.000000   0.000000
    24  H   -0.000000  -0.000000   0.000000  -0.000000   0.000000   0.000000
    25  H    0.000000   0.000000  -0.000000   0.000000  -0.000000   0.000000
    26  H   -0.000000   0.000000  -0.000000  -0.000000   0.000000  -0.000000
    27  H   -0.000004  -0.000000   0.000000   0.000000  -0.000000   0.000000
    28  H    0.000249  -0.000004  -0.000000   0.000000  -0.000000  -0.000000
    29  H   -0.009294   0.000542  -0.000004  -0.000000   0.000000   0.000000
    30  H   -0.047862  -0.005274   0.000248  -0.000004  -0.000000   0.000000
    31  H    0.380944  -0.052931  -0.009226   0.000533  -0.000004   0.000000
    32  H   -0.052686   0.381114  -0.047996  -0.005229   0.000237  -0.000003
    33  H   -0.005254  -0.048028   0.381356  -0.053580  -0.009066   0.000487
    34  H    0.000549  -0.009563  -0.051031   0.379524  -0.046679  -0.005161
    35  H   -0.000005   0.000269  -0.005756  -0.047478   0.381965  -0.050976
    36  H   -0.000000  -0.000000   0.000562  -0.012737  -0.035917   0.382771
    37  H   -0.000000   0.000003  -0.000224   0.004035  -0.020435   0.369510
    38  H    0.000000   0.000000   0.000000   0.000000   0.000000   0.000000
              19         20         21         22         23         24
     1  C    0.378392  -0.054898   0.006158   0.003538   0.000006   0.000001
     2  C   -0.029781   0.374930  -0.042984  -0.012022  -0.000139  -0.000000
     3  C   -0.014994  -0.038662   0.369817  -0.051961   0.005205   0.003404
     4  C    0.004474   0.005131  -0.052748   0.368715  -0.039289  -0.011719
     5  C   -0.000006  -0.000143  -0.012747  -0.038701   0.375056  -0.046102
     6  C    0.000001   0.000006   0.003168   0.005228  -0.058210   0.374677
     7  C    0.000000   0.000000   0.000062  -0.000127  -0.010407  -0.048244
     8  C    0.000000  -0.000000  -0.000002   0.000002   0.000589  -0.005748
     9  C   -0.000000  -0.000000  -0.000000  -0.000000  -0.000005   0.000255
    10  C    0.000000   0.000000   0.000000   0.000000  -0.000000  -0.000003
    11  C   -0.000000  -0.000000  -0.000000  -0.000000   0.000000  -0.000000
    12  C    0.000000   0.000000   0.000000   0.000000   0.000000   0.000000
    13  C    0.000000   0.000000  -0.000000  -0.000000  -0.000000  -0.000000
    14  C    0.000000   0.000000   0.000000   0.000000   0.000000  -0.000000
    15  C    0.000000   0.000000   0.000000   0.000000  -0.000000   0.000000
    16  C    0.000000   0.000000   0.000000   0.000000   0.000000  -0.000000
    17  C    0.000000   0.000000   0.000000   0.000000   0.000000   0.000000
    18  C    0.000000   0.000000   0.000000   0.000000   0.000000   0.000000
    19  H    0.600102   0.006182   0.000025   0.003500   0.000009   0.000000
    20  H    0.006182   0.638304  -0.006060   0.000081   0.000002   0.000008
    21  H    0.000025  -0.006060   0.646688   0.006434   0.000065   0.003212
    22  H    0.003500   0.000081   0.006434   0.641415  -0.006028   0.000041
    23  H    0.000009   0.000002   0.000065  -0.006028   0.641908   0.006218
    24  H    0.000000   0.000008   0.003212   0.000041   0.006218   0.633519
    25  H    0.000000   0.000000   0.000000  -0.000002   0.004420   0.004396
    26  H    0.000000   0.000000   0.000000   0.000000   0.000016   0.004299
    27  H   -0.000000  -0.000000  -0.000000   0.000000   0.000001   0.000005
    28  H    0.000000   0.000000   0.000000   0.000000  -0.000000   0.000001
    29  H    0.000000  -0.000000   0.000000  -0.000000  -0.000000  -0.000000
    30  H    0.000000  -0.000000   0.000000   0.000000   0.000000  -0.000000
    31  H    0.000000   0.000000   0.000000  -0.000000   0.000000   0.000000
    32  H    0.000000   0.000000   0.000000   0.000000   0.000000   0.000000
    33  H    0.000000   0.000000   0.000000   0.000000   0.000000   0.000000
    34  H    0.000000   0.000000   0.000000   0.000000   0.000000   0.000000
    35  H    0.000000   0.000000   0.000000   0.000000   0.000000   0.000000
    36  H    0.000000   0.000000   0.000000   0.000000   0.000000   0.000000
    37  H    0.000000   0.000000   0.000000   0.000000   0.000000   0.000000
    38  H   -0.044131  -0.009413  -0.000176  -0.000096  -0.000000  -0.000000
              25         26         27         28         29         30
     1  C   -0.000000   0.000000  -0.000000  -0.000000   0.000000   0.000000
     2  C    0.000000  -0.000000   0.000000   0.000000  -0.000000   0.000000
     3  C   -0.000002  -0.000002   0.000000  -0.000000   0.000000   0.000000
     4  C    0.000150   0.000000  -0.000000   0.000000   0.000000  -0.000000
     5  C   -0.005123   0.000555  -0.000004  -0.000000   0.000000   0.000000
     6  C   -0.048298  -0.009471   0.000242  -0.000004  -0.000000   0.000000
     7  C    0.381016  -0.052395  -0.005265   0.000538  -0.000004  -0.000000
     8  C   -0.052973   0.380276  -0.047977  -0.009278   0.000251  -0.000004
     9  C   -0.009278  -0.047773   0.380943  -0.052788  -0.005281   0.000541
    10  C    0.000553  -0.005311  -0.052694   0.380874  -0.047915  -0.009287
    11  C   -0.000004   0.000248  -0.009291  -0.047836   0.380891  -0.052730
    12  C   -0.000000  -0.000004   0.000543  -0.005275  -0.052768   0.380896
    13  C    0.000000  -0.000000  -0.000004   0.000249  -0.009294  -0.047862
    14  C    0.000000   0.000000  -0.000000  -0.000004   0.000542  -0.005274
    15  C   -0.000000  -0.000000   0.000000  -0.000000  -0.000004   0.000248
    16  C    0.000000  -0.000000   0.000000   0.000000  -0.000000  -0.000004
    17  C   -0.000000   0.000000  -0.000000  -0.000000   0.000000  -0.000000
    18  C    0.000000  -0.000000   0.000000  -0.000000   0.000000   0.000000
    19  H    0.000000   0.000000  -0.000000   0.000000   0.000000   0.000000
    20  H    0.000000   0.000000  -0.000000   0.000000  -0.000000  -0.000000
    21  H    0.000000   0.000000  -0.000000   0.000000   0.000000   0.000000
    22  H   -0.000002   0.000000   0.000000   0.000000  -0.000000   0.000000
    23  H    0.004420   0.000016   0.000001  -0.000000  -0.000000   0.000000
    24  H    0.004396   0.004299   0.000005   0.000001  -0.000000  -0.000000
    25  H    0.634051   0.006072   0.004047   0.000014   0.000001  -0.000000
    26  H    0.006072   0.634772   0.004272   0.004057   0.000005   0.000001
    27  H    0.004047   0.004272   0.634440   0.006068   0.004057   0.000014
    28  H    0.000014   0.004057   0.006068   0.634667   0.004269   0.004048
    29  H    0.000001   0.000005   0.004057   0.004269   0.634729   0.006070
    30  H   -0.000000   0.000001   0.000014   0.004048   0.006070   0.634576
    31  H   -0.000000  -0.000000   0.000001   0.000005   0.004060   0.004270
    32  H    0.000000  -0.000000  -0.000000   0.000001   0.000014   0.004047
    33  H    0.000000   0.000000  -0.000000  -0.000000   0.000001   0.000005
    34  H    0.000000   0.000000   0.000000  -0.000000  -0.000000   0.000001
    35  H    0.000000   0.000000   0.000000   0.000000  -0.000000  -0.000000
    36  H    0.000000   0.000000   0.000000   0.000000   0.000000  -0.000000
    37  H    0.000000   0.000000  -0.000000   0.000000  -0.000000   0.000000
    38  H    0.000000   0.000000   0.000000   0.000000   0.000000   0.000000
              31         32         33         34         35         36
     1  C    0.000000   0.000000   0.000000   0.000000   0.000000   0.000000
     2  C    0.000000   0.000000   0.000000   0.000000   0.000000   0.000000
     3  C   -0.000000   0.000000   0.000000   0.000000   0.000000   0.000000
     4  C    0.000000  -0.000000   0.000000   0.000000   0.000000   0.000000
     5  C    0.000000   0.000000  -0.000000   0.000000   0.000000   0.000000
     6  C   -0.000000  -0.000000   0.000000  -0.000000   0.000000   0.000000
     7  C    0.000000   0.000000   0.000000   0.000000  -0.000000   0.000000
     8  C   -0.000000   0.000000  -0.000000  -0.000000   0.000000  -0.000000
     9  C   -0.000004  -0.000000   0.000000   0.000000   0.000000   0.000000
    10  C    0.000251  -0.000004  -0.000000   0.000000  -0.000000  -0.000000
    11  C   -0.005281   0.000542  -0.000004  -0.000000   0.000000   0.000000
    12  C   -0.047921  -0.009286   0.000252  -0.000004  -0.000000   0.000000
    13  C    0.380944  -0.052686  -0.005254   0.000549  -0.000005  -0.000000
    14  C   -0.052931   0.381114  -0.048028  -0.009563   0.000269  -0.000000
    15  C   -0.009226  -0.047996   0.381356  -0.051031  -0.005756   0.000562
    16  C    0.000533  -0.005229  -0.053580   0.379524  -0.047478  -0.012737
    17  C   -0.000004   0.000237  -0.009066  -0.046679   0.381965  -0.035917
    18  C    0.000000  -0.000003   0.000487  -0.005161  -0.050976   0.382771
    19  H    0.000000   0.000000   0.000000   0.000000   0.000000   0.000000
    20  H    0.000000   0.000000   0.000000   0.000000   0.000000   0.000000
    21  H    0.000000   0.000000   0.000000   0.000000   0.000000   0.000000
    22  H   -0.000000   0.000000   0.000000   0.000000   0.000000   0.000000
    23  H    0.000000   0.000000   0.000000   0.000000   0.000000   0.000000
    24  H    0.000000   0.000000   0.000000   0.000000   0.000000   0.000000
    25  H   -0.000000   0.000000   0.000000   0.000000   0.000000   0.000000
    26  H   -0.000000  -0.000000   0.000000   0.000000   0.000000   0.000000
    27  H    0.000001  -0.000000  -0.000000   0.000000   0.000000   0.000000
    28  H    0.000005   0.000001  -0.000000  -0.000000   0.000000   0.000000
    29  H    0.004060   0.000014   0.000001  -0.000000  -0.000000   0.000000
    30  H    0.004270   0.004047   0.000005   0.000001  -0.000000  -0.000000
    31  H    0.634725   0.006065   0.004068   0.000014   0.000001  -0.000000
    32  H    0.006065   0.634095   0.004268   0.004049   0.000005   0.000001
    33  H    0.004068   0.004268   0.634119   0.006059   0.004190   0.000014
    34  H    0.000014   0.004049   0.006059   0.631534   0.004337   0.004583
    35  H    0.000001   0.000005   0.004190   0.004337   0.631714   0.005979
    36  H   -0.000000   0.000001   0.000014   0.004583   0.005979   0.601466
    37  H   -0.000000   0.000000  -0.000008   0.000025  -0.008099  -0.042374
    38  H    0.000000   0.000000   0.000000   0.000000   0.000000   0.000000
              37         38
     1  C    0.000000   0.373110
     2  C    0.000000  -0.020559
     3  C    0.000000   0.004926
     4  C    0.000000   0.000187
     5  C    0.000000  -0.000002
     6  C    0.000000   0.000000
     7  C    0.000000  -0.000000
     8  C    0.000000   0.000000
     9  C    0.000000   0.000000
    10  C    0.000000  -0.000000
    11  C   -0.000000   0.000000
    12  C    0.000000   0.000000
    13  C   -0.000000   0.000000
    14  C    0.000003   0.000000
    15  C   -0.000224   0.000000
    16  C    0.004035   0.000000
    17  C   -0.020435   0.000000
    18  C    0.369510   0.000000
    19  H    0.000000  -0.044131
    20  H    0.000000  -0.009413
    21  H    0.000000  -0.000176
    22  H    0.000000  -0.000096
    23  H    0.000000  -0.000000
    24  H    0.000000  -0.000000
    25  H    0.000000   0.000000
    26  H    0.000000   0.000000
    27  H   -0.000000   0.000000
    28  H    0.000000   0.000000
    29  H   -0.000000   0.000000
    30  H    0.000000   0.000000
    31  H   -0.000000   0.000000
    32  H    0.000000   0.000000
    33  H   -0.000008   0.000000
    34  H    0.000025   0.000000
    35  H   -0.008099   0.000000
    36  H   -0.042374   0.000000
    37  H    0.602018   0.000000
    38  H    0.000000   0.598259
 Mulliken charges:
               1
     1  C   -0.237041
     2  C   -0.050650
     3  C   -0.079219
     4  C   -0.076501
     5  C   -0.107233
     6  C   -0.055433
     7  C   -0.076261
     8  C   -0.082334
     9  C   -0.079825
    10  C   -0.079020
    11  C   -0.079731
    12  C   -0.079668
    13  C   -0.078988
    14  C   -0.080603
    15  C   -0.076752
    16  C   -0.077710
    17  C   -0.033626
    18  C   -0.251794
    19  H    0.096227
    20  H    0.084532
    21  H    0.079087
    22  H    0.079982
    23  H    0.080584
    24  H    0.081778
    25  H    0.080961
    26  H    0.080384
    27  H    0.080603
    28  H    0.080395
    29  H    0.080377
    30  H    0.080444
    31  H    0.080431
    32  H    0.080766
    33  H    0.081123
    34  H    0.081762
    35  H    0.083855
    36  H    0.095653
    37  H    0.095549
    38  H    0.097895
 Sum of Mulliken charges =  -0.00000
 Mulliken charges with hydrogens summed into heavy atoms:
               1
     1  C   -0.042920
     2  C    0.033882
     3  C   -0.000132
     4  C    0.003481
     5  C   -0.026648
     6  C    0.026345
     7  C    0.004701
     8  C   -0.001951
     9  C    0.000778
    10  C    0.001374
    11  C    0.000646
    12  C    0.000776
    13  C    0.001444
    14  C    0.000163
    15  C    0.004371
    16  C    0.004052
    17  C    0.050229
    18  C   -0.060591
 Electronic spatial extent (au):  <R**2>=          18652.2155
 Charge=              0.0000 electrons
 Dipole moment (field-independent basis, Debye):
    X=              0.1205    Y=             -0.0607    Z=              0.0042  Tot=              0.1350
 Quadrupole moment (field-independent basis, Debye-Ang):
   XX=           -103.9179   YY=            -94.9256   ZZ=           -117.9809
   XY=             -0.9255   XZ=             -0.0011   YZ=             -0.1405
 Traceless Quadrupole moment (field-independent basis, Debye-Ang):
   XX=              1.6902   YY=             10.6826   ZZ=            -12.3728
   XY=             -0.9255   XZ=             -0.0011   YZ=             -0.1405
 Octapole moment (field-independent basis, Debye-Ang**2):
  XXX=             -6.5175  YYY=             -0.4105  ZZZ=             -0.0100  XYY=             -0.7440
  XXY=            -10.2555  XXZ=              0.9673  XZZ=             -0.2389  YZZ=             -0.1919
  YYZ=              0.0021  XYZ=              0.2675
 Hexadecapole moment (field-independent basis, Debye-Ang**3):
 XXXX=         -24198.5021 YYYY=           -449.6582 ZZZZ=           -122.3315 XXXY=           -119.7438
 XXXZ=              0.0446 YYYX=              0.5671 YYYZ=             -0.3824 ZZZX=             -0.0237
 ZZZY=             -0.1365 XXYY=          -3884.8044 XXZZ=          -4734.5572 YYZZ=           -108.9288
 XXYZ=             -5.2639 YYXZ=              0.0848 ZZXY=             -0.0597
 N-N= 9.476209167893D+02 E-N=-3.509251140357D+03  KE= 6.908733281606D+02
 Calling FoFJK, ICntrl=      2127 FMM=F ISym2X=0 I1Cent= 0 IOpClX= 0 NMat=1 NMatS=1 NMatT=0.
 ***** Axes restored to original set *****
 -------------------------------------------------------------------
 Center     Atomic                   Forces (Hartrees/Bohr)
 Number     Number              X              Y              Z
 -------------------------------------------------------------------
      1        6          -0.006818731   -0.000144491    0.004647148
      2        6           0.016478250   -0.003429817   -0.005259465
      3        6          -0.021251590    0.009798626   -0.001736069
      4        6           0.025516303   -0.012059747    0.002544029
      5        6          -0.030387139    0.012829858   -0.000599084
      6        6           0.034190507   -0.005223069   -0.013957171
      7        6          -0.036818422    0.010594973    0.007198128
      8        6           0.035990446   -0.009477006   -0.008470855
      9        6          -0.036481096    0.009601360    0.008640329
     10        6           0.036253229   -0.009482521   -0.008729031
     11        6          -0.036143846    0.009325529    0.008951777
     12        6           0.035783088   -0.009219872   -0.008924437
     13        6          -0.035433145    0.008764862    0.009443697
     14        6           0.034452060   -0.008483094   -0.009271392
     15        6          -0.033364389    0.007118238    0.010703848
     16        6           0.029600127   -0.005719969   -0.010431055
     17        6          -0.021043708    0.000231242    0.013371699
     18        6           0.008583030   -0.003612056    0.000005020
     19        1           0.000063859    0.001134972   -0.001843121
     20        1           0.001405176   -0.001844829    0.002022090
     21        1           0.002184458   -0.002217286    0.002097050
     22        1          -0.001963931    0.002010021   -0.001896507
     23        1           0.000075205    0.000329249   -0.000551215
     24        1           0.000568480   -0.001752496    0.002409759
     25        1          -0.002707887    0.001690822   -0.000885978
     26        1           0.002641855   -0.001662636    0.000921717
     27        1          -0.002647300    0.001656537   -0.000856460
     28        1           0.002651371   -0.001643643    0.000875522
     29        1          -0.002642128    0.001665967   -0.000863084
     30        1           0.002654108   -0.001647267    0.000865304
     31        1          -0.002632292    0.001672099   -0.000872582
     32        1           0.002656885   -0.001643844    0.000842870
     33        1          -0.002615040    0.001670680   -0.000879985
     34        1           0.002864782   -0.001744875    0.000851032
     35        1          -0.003865044    0.003031792   -0.002176793
     36        1           0.002057383   -0.001207979    0.000537139
     37        1          -0.000025882   -0.002418012    0.003769840
     38        1           0.000170967    0.001507683   -0.002493713
 -------------------------------------------------------------------
 Cartesian Forces:  Max     0.036818422 RMS     0.012935721

 GradGradGradGradGradGradGradGradGradGradGradGradGradGradGradGradGradGrad
 Berny optimization.
 FormGI is forming the generalized inverse of G from B-inverse, IUseBI=4.
 Internal  Forces:  Max     0.022027366 RMS     0.007324967
 Search for a local minimum.
 Step number   1 out of a maximum of  169
 All quantities printed in internal units (Hartrees-Bohrs-Radians)
 Mixed Optimization -- RFO/linear search
 Second derivative matrix not updated -- first step.
 ITU=  0
     Eigenvalues ---    0.00927   0.00935   0.01047   0.01060   0.01060
     Eigenvalues ---    0.01060   0.01060   0.01066   0.01885   0.01891
     Eigenvalues ---    0.01894   0.01916   0.01961   0.01969   0.01977
     Eigenvalues ---    0.01978   0.01978   0.01978   0.01978   0.01978
     Eigenvalues ---    0.01978   0.01978   0.01982   0.01998   0.02758
     Eigenvalues ---    0.02818   0.02885   0.02885   0.02885   0.02888
     Eigenvalues ---    0.02888   0.02888   0.02888   0.02949   0.02949
     Eigenvalues ---    0.16000   0.16000   0.16000   0.16000   0.16000
     Eigenvalues ---    0.16000   0.16000   0.16000   0.16000   0.16000
     Eigenvalues ---    0.16000   0.16000   0.16000   0.16000   0.16000
     Eigenvalues ---    0.16000   0.16000   0.16000   0.16000   0.16000
     Eigenvalues ---    0.22000   0.22000   0.22000   0.22000   0.22000
     Eigenvalues ---    0.22000   0.22000   0.22000   0.22000   0.22000
     Eigenvalues ---    0.22000   0.22000   0.22000   0.22000   0.22000
     Eigenvalues ---    0.22000   0.33685   0.33757   0.34710   0.34822
     Eigenvalues ---    0.34823   0.34824   0.34825   0.34880   0.35079
     Eigenvalues ---    0.35080   0.35080   0.35081   0.35081   0.35082
     Eigenvalues ---    0.35082   0.35082   0.35082   0.35084   0.35176
     Eigenvalues ---    0.35191   0.35272   0.35285   0.35360   0.35371
     Eigenvalues ---    0.35633   0.35741   0.35747   0.35782   0.55150
     Eigenvalues ---    0.56120   0.57240   0.57245   0.57294   0.57296
     Eigenvalues ---    0.57296   0.57308   0.58342
 RFO step:  Lambda=-2.56240973D-02 EMin= 9.26515733D-03
 Linear search not attempted -- first point.
 Iteration  1 RMS(Cart)=  0.07154630 RMS(Int)=  0.00047599
 Iteration  2 RMS(Cart)=  0.00155942 RMS(Int)=  0.00000198
 Iteration  3 RMS(Cart)=  0.00000043 RMS(Int)=  0.00000198
 Variable       Old X    -DE/DX   Delta X   Delta X   Delta X     New X
                                 (Linear)    (Quad)   (Total)
    R1        2.53189   0.00408   0.00000   0.00683   0.00683   2.53872
    R2        2.04478   0.00190   0.00000   0.00497   0.00497   2.04975
    R3        2.05095  -0.00004   0.00000  -0.00010  -0.00010   2.05084
    R4        2.81042  -0.01167   0.00000  -0.03214  -0.03214   2.77829
    R5        2.05215   0.00132   0.00000   0.00350   0.00350   2.05565
    R6        2.54999   0.00219   0.00000   0.00379   0.00379   2.55378
    R7        2.04425   0.00349   0.00000   0.00910   0.00910   2.05335
    R8        2.81165  -0.01669   0.00000  -0.04606  -0.04606   2.76559
    R9        2.04489   0.00316   0.00000   0.00825   0.00825   2.05314
   R10        2.54150   0.01303   0.00000   0.02220   0.02220   2.56370
   R11        2.05391   0.00057   0.00000   0.00152   0.00152   2.05542
   R12        2.79448  -0.02054   0.00000  -0.05510  -0.05510   2.73939
   R13        2.04660   0.00221   0.00000   0.00578   0.00578   2.05239
   R14        2.53194   0.02189   0.00000   0.03661   0.03661   2.56854
   R15        2.05546  -0.00018   0.00000  -0.00048  -0.00048   2.05499
   R16        2.79263  -0.01951   0.00000  -0.05219  -0.05219   2.74044
   R17        2.05538  -0.00012   0.00000  -0.00031  -0.00031   2.05507
   R18        2.53148   0.02203   0.00000   0.03680   0.03680   2.56828
   R19        2.05542  -0.00017   0.00000  -0.00046  -0.00046   2.05496
   R20        2.79260  -0.01928   0.00000  -0.05156  -0.05156   2.74104
   R21        2.05541  -0.00016   0.00000  -0.00044  -0.00044   2.05498
   R22        2.53147   0.02175   0.00000   0.03633   0.03633   2.56779
   R23        2.05543  -0.00016   0.00000  -0.00043  -0.00043   2.05500
   R24        2.79262  -0.01892   0.00000  -0.05059  -0.05059   2.74203
   R25        2.05541  -0.00017   0.00000  -0.00045  -0.00045   2.05496
   R26        2.53146   0.02099   0.00000   0.03506   0.03506   2.56653
   R27        2.05543  -0.00015   0.00000  -0.00039  -0.00039   2.05504
   R28        2.79265  -0.01791   0.00000  -0.04790  -0.04790   2.74475
   R29        2.05542  -0.00019   0.00000  -0.00050  -0.00050   2.05491
   R30        2.53137   0.01876   0.00000   0.03134   0.03134   2.56271
   R31        2.05546  -0.00013   0.00000  -0.00035  -0.00035   2.05511
   R32        2.79171  -0.01416   0.00000  -0.03783  -0.03783   2.75388
   R33        2.05546  -0.00026   0.00000  -0.00068  -0.00068   2.05478
   R34        2.52277   0.01189   0.00000   0.01952   0.01952   2.54229
   R35        2.05366   0.00062   0.00000   0.00166   0.00166   2.05531
   R36        2.05235  -0.00019   0.00000  -0.00051  -0.00051   2.05184
   R37        2.05077   0.00017   0.00000   0.00044   0.00044   2.05121
    A1        2.14746  -0.00059   0.00000  -0.00316  -0.00316   2.14430
    A2        2.08395   0.00329   0.00000   0.01771   0.01771   2.10166
    A3        2.05177  -0.00270   0.00000  -0.01455  -0.01455   2.03722
    A4        2.18692   0.00902   0.00000   0.03671   0.03671   2.22363
    A5        2.05452  -0.00166   0.00000  -0.00300  -0.00300   2.05152
    A6        2.04175  -0.00736   0.00000  -0.03370  -0.03370   2.00805
    A7        2.17476   0.00665   0.00000   0.02706   0.02706   2.20183
    A8        2.00797  -0.00191   0.00000  -0.00592  -0.00592   2.00206
    A9        2.10045  -0.00474   0.00000  -0.02115  -0.02115   2.07930
   A10        2.17886   0.00727   0.00000   0.02959   0.02959   2.20845
   A11        2.09649  -0.00489   0.00000  -0.02156  -0.02156   2.07493
   A12        2.00784  -0.00238   0.00000  -0.00803  -0.00803   1.99981
   A13        2.18605   0.00863   0.00000   0.03512   0.03512   2.22117
   A14        2.02665  -0.00462   0.00000  -0.01923  -0.01923   2.00742
   A15        2.07049  -0.00400   0.00000  -0.01589  -0.01589   2.05459
   A16        2.10382   0.01104   0.00000   0.04493   0.04493   2.14875
   A17        2.11797  -0.00339   0.00000  -0.01101  -0.01101   2.10696
   A18        2.06140  -0.00764   0.00000  -0.03392  -0.03392   2.02748
   A19        2.11217   0.01177   0.00000   0.04792   0.04792   2.16009
   A20        2.08204  -0.00928   0.00000  -0.04228  -0.04228   2.03977
   A21        2.08897  -0.00249   0.00000  -0.00564  -0.00564   2.08333
   A22        2.11055   0.01248   0.00000   0.05079   0.05079   2.16134
   A23        2.09104  -0.00290   0.00000  -0.00739  -0.00739   2.08366
   A24        2.08159  -0.00958   0.00000  -0.04340  -0.04340   2.03819
   A25        2.11115   0.01246   0.00000   0.05073   0.05073   2.16188
   A26        2.08160  -0.00955   0.00000  -0.04327  -0.04327   2.03834
   A27        2.09043  -0.00291   0.00000  -0.00746  -0.00746   2.08297
   A28        2.11051   0.01261   0.00000   0.05136   0.05136   2.16186
   A29        2.09073  -0.00298   0.00000  -0.00776  -0.00776   2.08297
[...]
 00000039,0.00000634,0.00000079,0.00000665,-0.00003352,0.00001157,0.000
 00747,-0.00009426,0.00006932,0.00017864,0.00003622,-0.00019063,0.00044
 604,-0.00003977,0.00413824,-0.00051629,0.12481181,-0.00000092,-0.00000
 027,-0.00000017,0.00000056,-0.00000012,-0.00000079,-0.00000045,-0.0000
 0060,0.00000036,0.00000025,-0.00000037,0.00000115,-0.00000061,-0.00000
 060,-0.00000029,-0.00000148,-0.00000250,-0.00000275,0.00000044,-0.0000
 0130,0.00000156,0.00000306,0.00001381,0.00000751,0.00000131,-0.0000076
 9,-0.00000018,-0.00003227,-0.00005413,-0.00003557,0.00001703,0.0000192
 0,0.00001485,0.00005526,0.00015330,0.00005863,0.00021624,-0.00007833,-
 0.00017457,-0.00301385,-0.00320640,-0.00225127,-0.00994065,-0.00217749
 ,0.01745618,-0.03614956,-0.07319838,0.07655711,0.00554503,0.00544972,-
 0.00741781,-0.00034943,-0.00042859,-0.00150410,0.00000021,0.00000025,0
 .00000008,0.00000009,0.00000021,0.00000018,0.00000016,0.00000056,0.000
 00009,-0.00000017,0.00000050,-0.00000012,0.00000029,0.00000036,-0.0000
 0010,0.00000048,0.00000058,0.00000026,0.00000056,0.00000157,0.00000034
 ,0.00000112,0.00000099,0.00000029,-0.00000224,-0.00000415,-0.00000456,
 0.00000405,0.00000171,0.00000049,0.00000063,0.00001700,0.00000206,0.00
 004026,-0.00000938,-0.00000194,0.00006880,0.00032709,-0.00000793,0.000
 77161,0.00013845,-0.00029634,0.00412081,0.00391767,0.00551493,0.036267
 11,0.06732354,0.00000160,-0.00000050,-0.00000102,-0.00000096,-0.000001
 16,0.00000205,-0.00000088,0.,0.,0.00000284,0.00000158,-0.00000383,-0.0
 0000295,0.00000245,-0.00000295,0.00000512,-0.00000738,0.00000333,-0.00
 000835,0.00000885,-0.00000851,0.00001892,-0.00000246,0.00001155,-0.000
 02290,0.00001608,-0.00001757,0.00002406,-0.00005736,-0.00001646,-0.000
 04847,0.00005485,-0.00001844,0.00009404,0.00005018,0.00007501,-0.00050
 787,0.00001157,0.00020840,0.00069407,-0.00358517,-0.00075987,0.0121356
 6,0.00751439,-0.01461521,0.10890313,0.07701900,-0.22920436,0.00107271,
 0.00256277,-0.00170160,-0.00123669,-0.00077023,0.00045856,-0.00000018,
 0.00000017,0.00000024,0.00000026,0.00000018,-0.00000008,0.00000005,0.0
 0000008,0.00000053,0.00000075,-0.00000050,0.00000066,-0.00000043,0.000
 00005,0.00000062,-0.00000005,0.00000039,0.00000036,0.00000019,0.000000
 34,0.00000136,-0.00000060,0.00000071,0.00000091,-0.00000129,-0.0000045
 8,-0.00000003,-0.00000296,0.00000187,0.00000269,0.00000691,0.00000195,
 0.00001108,-0.00003724,0.00001655,0.00000424,0.00017946,-0.00000827,0.
 00024768,-0.00105313,0.00032387,0.00044165,-0.00048911,0.00550370,0.00
 090269,-0.12082685,-0.08928997,0.24200923,-0.00001202,0.00000417,0.000
 00088,0.00001457,0.00000031,-0.00001007,-0.00001260,0.00000020,0.00000
 763,0.00001034,-0.00001145,0.00001103,-0.00001309,0.00000962,-0.000006
 95,0.00001555,0.00000273,-0.00001464,-0.00001759,-0.00000135,0.0000127
 8,0.00001904,0.00000385,-0.00001858,-0.00002212,-0.00000207,0.00001699
 ,0.00002373,0.00000512,-0.00002612,-0.00003217,-0.00000767,0.00002548,
 0.00004835,0.00000706,-0.00003221,-0.00002252,0.00001766,-0.00002654,-
 0.00002348,0.00021335,-0.00044750,0.00118909,-0.00182840,0.00102435,-0
 .01262829,-0.00987359,0.02546646,-0.11962230,-0.03791074,0.10927941,0.
 01042847,0.00657099,-0.01359961,0.00000066,-0.00000030,0.00000023,-0.0
 0000262,-0.00000026,0.00000226,0.00000120,-0.00000009,-0.00000037,-0.0
 0000261,0.00000245,-0.00000194,0.00000149,-0.00000029,-0.00000017,-0.0
 0000200,-0.00000035,0.00000219,0.,0.00000025,0.00000021,-0.00000252,-0
 .00000063,0.00000326,-0.00000035,0.00000074,0.00000011,-0.00000258,-0.
 00000098,0.00000403,-0.00000198,0.00000359,-0.00000159,0.00000368,-0.0
 0000373,0.00000691,-0.00003395,0.00004056,-0.00003449,0.00028438,-0.00
 000883,-0.00010070,0.00002600,0.00078362,-0.00109533,-0.00415784,0.002
 82630,0.00063503,0.12396316,-0.00000679,0.00000185,0.00000060,0.000007
 62,0.00000055,-0.00000611,-0.00000589,-0.00000007,0.00000335,0.0000035
 8,-0.00000631,0.00000712,-0.00000461,0.00000302,-0.00000268,0.00000448
 ,0.00000352,-0.00000925,-0.00000425,-0.00000487,0.00000873,0.00000228,
 0.00000619,-0.00001183,-0.00000138,-0.00000802,0.00001219,-0.00000406,
 0.00000877,-0.00001791,0.00000050,-0.00002134,0.00001552,-0.00001936,0
 .00003712,-0.00002131,-0.00002364,-0.00004999,0.00006038,-0.00004701,-
 0.00006599,-0.00018170,-0.00017298,-0.00053535,-0.00161148,0.00551542,
 0.00539715,-0.00726505,-0.03720773,-0.07526743,0.07625551,-0.00973095,
 -0.00225961,0.01791352,0.00000045,-0.00000005,0.00000023,-0.00000146,-
 0.00000003,0.00000137,0.00000078,0.00000015,-0.00000012,-0.00000142,0.
 00000153,-0.00000102,0.00000097,0.00000003,0.00000013,-0.00000104,0.00
 000008,0.00000140,0.00000026,0.00000045,0.00000056,-0.00000128,0.00000
 017,0.00000213,0.00000027,0.00000086,0.00000100,-0.00000172,0.00000026
 ,0.00000273,0.00000171,0.00000194,0.00000247,-0.00000444,0.00000434,0.
 00000451,0.00001108,-0.00000551,0.00001794,-0.00000312,0.00001655,0.00
 014262,-0.00020980,0.00012000,0.00029226,0.00273121,0.00180517,0.00112
 807,0.03652399,0.06970290,0.00001795,-0.00000646,-0.00000206,-0.000021
 39,-0.00000136,0.00001582,0.00001705,-0.00000060,-0.00001051,-0.000012
 41,0.00001679,-0.00001846,0.00001523,-0.00001184,0.00000806,-0.0000173
 6,-0.00000812,0.00002328,0.00001729,0.00000686,-0.00002286,-0.00001612
 ,-0.00001285,0.00002994,0.00001591,0.00001264,-0.00003071,-0.00001181,
 -0.00002383,0.00004033,0.00001276,0.00002078,-0.00005178,0.00000894,-0
 .00003834,0.00006940,0.00003780,0.00003376,-0.00009798,-0.00004186,-0.
 00034951,0.00036946,-0.00155478,-0.00054450,0.00020921,0.00149034,0.00
 265391,-0.00207955,0.10818412,0.07670865,-0.23095803,0.01179887,0.0074
 0613,-0.01393127,-0.00000095,0.00000071,-0.00000022,0.00000413,0.00000
 059,-0.00000335,-0.00000174,0.00000044,0.00000082,0.00000408,-0.000003
 51,0.00000313,-0.00000215,0.00000095,0.00000042,0.00000326,0.00000095,
 -0.00000304,0.00000019,0.00000056,-0.00000009,0.00000426,0.00000171,-0
 .00000441,0.00000084,0.00000070,-0.00000002,0.00000518,0.00000226,-0.0
 0000555,0.00000133,0.00000126,0.00000141,0.00000803,0.00000405,-0.0000
 0609,0.00001144,-0.00000106,0.00000487,-0.00010959,0.00014630,-0.00005
 050,0.00045242,-0.00034805,0.00047143,0.00078317,0.00106678,0.00149228
 ,-0.11920617,-0.08959969,0.24373423,0.00000364,-0.00000178,0.00000003,
 -0.00000528,0.00000029,0.00000284,0.00000499,0.00000002,-0.00000351,-0
 .00000536,0.00000351,-0.00000235,0.00000576,-0.00000538,0.00000429,-0.
 00000839,0.00000238,0.00000210,0.00000933,-0.00000467,0.00000058,-0.00
 001408,0.00000321,0.00000011,0.00001518,-0.00000894,0.00000386,-0.0000
 1997,0.00001617,0.00000296,0.00002736,-0.00002148,0.00001000,-0.000053
 51,-0.00000692,-0.00002232,0.00007285,-0.00004163,0.00004195,-0.000047
 03,0.00008250,0.00010956,0.00012133,-0.00004655,-0.00005010,0.00037023
 ,-0.00145204,-0.00272697,0.01080544,0.00551173,-0.01251597,-0.11504134
 ,-0.03729420,0.11085124,-0.00000011,0.00000023,-0.00000009,0.00000087,
 0.00000022,-0.00000072,-0.00000034,0.00000018,0.00000020,0.00000065,-0
 .00000053,0.00000061,-0.00000018,0.00000037,-0.00000009,0.00000072,0.0
 0000037,-0.00000064,0.00000021,0.00000034,-0.00000033,0.00000097,0.000
 00064,-0.00000087,0.00000058,0.00000099,-0.00000022,0.00000116,0.00000
 100,-0.00000104,-0.00000033,-0.00000214,-0.00000230,0.00000025,0.00000
 262,-0.00000152,0.00000528,0.00000149,0.00000463,-0.00003310,0.0000116
 1,0.00000551,-0.00009268,0.00005720,0.00018880,0.00008875,-0.00023770,
 0.00050085,0.00040321,0.00460304,-0.00035700,0.11116928,-0.00000145,-0
 .00000001,-0.00000003,0.00000130,0.00000009,-0.00000131,-0.00000092,-0
 .00000033,0.00000049,0.00000016,-0.00000149,0.00000142,-0.00000057,-0.
 00000013,-0.00000035,0.00000023,0.00000153,-0.00000158,0.00000005,-0.0
 0000229,0.00000190,-0.00000299,-0.00000190,-0.00000471,0.00000208,-0.0
 0000342,0.00000331,0.00000145,0.00001888,0.00000661,0.00000449,-0.0000
 1242,0.00000235,-0.00004165,-0.00005844,-0.00004547,0.00002370,0.00001
 269,0.00002307,0.00006205,0.00023803,0.00009142,0.00023356,-0.00007601
 ,-0.00013951,-0.00352027,-0.00399412,-0.00299138,-0.00989045,-0.002188
 60,0.01712317,-0.03553020,-0.07456930,0.08734523,0.00000018,0.00000015
 ,0.00000010,-0.00000016,0.00000015,0.00000033,0.00000021,0.00000030,0.
 00000004,-0.00000025,0.00000051,-0.00000016,0.00000036,0.00000035,0.00
 000012,0.00000007,0.00000034,0.00000038,0.00000016,0.00000042,0.000000
 07,0.00000031,0.00000066,0.00000059,0.00000068,0.00000186,0.00000073,0
 .00000090,0.00000113,0.00000071,-0.00000266,-0.00000487,-0.00000483,0.
 00000360,0.00000201,0.00000114,0.00000062,0.00001471,0.00000170,0.0000
 3627,-0.00000980,-0.00000263,0.00006443,0.00031694,-0.00000794,0.00074
 330,0.00014698,-0.00025433,0.00475543,0.00507834,0.00612319,0.03872057
 ,0.06996480,-0.00000050,0.00000018,-0.00000060,0.00000125,-0.00000065,
 0.00000001,-0.00000204,-0.00000012,0.00000110,0.00000287,-0.00000074,-
 0.00000122,-0.00000320,0.00000275,-0.00000281,0.00000544,-0.00000296,0
 .00000173,-0.00000676,0.00000494,-0.00000439,0.00000977,-0.00000871,0.
 00000111,-0.00001331,0.00001041,-0.00000808,0.00002591,-0.00000288,0.0
 0001151,-0.00003047,0.00001910,-0.00001917,0.00003179,-0.00006785,-0.0
 0001963,-0.00005983,0.00006518,-0.00002568,0.00014143,0.00007823,0.000
 10932,-0.00048651,0.00004104,0.00018072,0.00049534,-0.00432446,-0.0009
 5223,0.01148065,0.00719575,-0.01390063,0.10810290,0.08848220,-0.240738
 54,-0.00000002,0.00000008,0.00000019,-0.00000012,0.00000008,0.00000024
 ,0.00000016,0.00000006,0.00000022,0.00000018,0.00000002,0.00000016,-0.
 00000007,0.00000011,0.00000044,-0.00000017,0.00000018,0.00000044,-0.00
 000004,-0.00000005,0.00000063,-0.00000036,0.00000038,0.00000081,0.0000
 0025,0.00000054,0.00000161,-0.00000088,0.00000064,0.00000153,-0.000001
 49,-0.00000517,-0.00000006,-0.00000304,0.00000177,0.00000344,0.0000059
 8,0.00000114,0.00001043,-0.00003290,0.00001326,0.00000406,0.00017754,-
 0.00000328,0.00022918,-0.00102754,0.00037797,0.00036465,-0.00059441,0.
 00622142,0.00166597,-0.11796815,-0.10009177,0.25371891,-0.00001346,0.0
 0000493,0.00000067,0.00001687,0.00000012,-0.00001128,-0.00001451,-0.00
 000018,0.00000947,0.00001265,-0.00001263,0.00001179,-0.00001466,0.0000
 1197,-0.00000958,0.00001840,-0.00000008,-0.00001397,-0.00001983,0.0000
 0218,0.00000952,0.00002563,0.00000292,-0.00001270,-0.00002665,0.000004
 38,0.00000754,0.00002615,-0.00002078,-0.00002813,-0.00004157,0.0000163
 7,0.00000701,0.00008430,0.00007666,0.00002558,-0.00012665,0.00002097,0
 .00000165,-0.00006163,-0.00031228,-0.00041049,-0.00056082,0.00012439,0
 .00031340,0.00221890,0.00411403,-0.00034438,-0.00977148,0.00246378,0.0
 0515576,-0.31164065,0.08409889,0.04974163,0.00000074,-0.00000041,0.000
 00032,-0.00000293,-0.00000036,0.00000259,0.00000134,-0.00000005,-0.000
 00054,-0.00000273,0.00000264,-0.00000220,0.00000145,-0.00000057,0.0000
 0005,-0.00000217,-0.00000049,0.00000244,0.,0.00000004,0.00000085,-0.00
 000273,-0.00000087,0.00000351,-0.00000078,-0.00000103,0.00000062,-0.00
 000293,-0.00000098,0.00000458,0.00000189,0.00000555,0.00000493,-0.0000
 0264,-0.00000237,0.00000580,-0.00000705,-0.00001984,-0.00001275,0.0000
 1054,-0.00000388,0.00001530,0.00001093,0.00007609,-0.00003134,0.000284
 65,-0.00021228,-0.00003512,0.00018125,-0.00195384,-0.00154377,-0.00778
 685,0.00433558,-0.00024968,0.32720886,0.00000999,-0.00000388,-0.000001
 13,-0.00001231,-0.00000071,0.00000875,0.00000998,-0.00000051,-0.000006
 20,-0.00000757,0.00000977,-0.00000976,0.00000908,-0.00000764,0.0000052
 0,-0.00001197,-0.00000561,0.00001107,0.00001148,0.00000249,-0.00001095
 ,-0.00000866,0.00000308,0.00002104,0.00001179,0.00000088,-0.00001578,-
 0.00003064,-0.00005158,-0.00000540,0.00002233,0.00001100,-0.00001770,0
 .00006911,0.00017031,0.00017200,0.00006368,-0.00004159,-0.00009061,-0.
 00035717,-0.00109442,-0.00032897,0.00089876,0.00016911,-0.00049053,0.0
 0302910,0.00558974,0.00745686,0.01929029,-0.00122492,-0.00400794,0.081
 79237,-0.06351263,-0.00235011,-0.00000045,0.00000052,-0.00000012,0.000
 00241,0.00000042,-0.00000189,-0.00000097,0.00000045,0.00000050,0.00000
 224,-0.00000181,0.00000173,-0.00000111,0.00000059,0.00000005,0.0000020
 1,0.00000072,-0.00000172,0.00000044,0.00000116,0.00000009,0.00000271,0
 .00000115,-0.00000258,-0.00000028,-0.00000105,-0.00000177,0.00000385,0
 .00000215,-0.00000301,0.00000620,0.00001511,0.00000820,0.00000437,0.00
 000225,-0.00000534,-0.00002092,-0.00004720,-0.00002950,0.00000824,0.00
 002277,-0.00000199,-0.00000521,0.00009487,0.00008336,0.00004410,-0.000
 14862,-0.00023770,-0.00212238,-0.00396708,-0.00325871,-0.00989644,0.00
 512197,0.00199107,-0.09281986,0.05888957,-0.00000719,0.00000212,0.0000
 0085,0.00000816,0.00000068,-0.00000659,-0.00000641,0.00000038,0.000003
 23,0.00000388,-0.00000648,0.00000800,-0.00000506,0.00000332,-0.0000024
 9,0.00000456,0.00000340,-0.00001170,-0.00000496,-0.00000496,0.00001114
 ,0.00000536,0.00001357,-0.00001160,-0.00000401,-0.00001101,0.00001536,
 -0.00001276,-0.00001176,-0.00004117,-0.00000227,-0.00001386,0.00003194
 ,0.00003736,0.00016713,0.00002483,-0.00006489,-0.00006308,0.00006670,-
 0.00034055,-0.00035791,-0.00067621,-0.00089308,0.00000860,0.00078832,0
 .00134595,0.00675757,0.00023321,-0.02105999,0.00683753,0.00710427,0.05
 333521,-0.00383677,-0.05958277,0.00000039,-0.00000015,0.00000024,-0.00
 000173,-0.00000010,0.00000149,0.00000088,-0.00000008,-0.00000006,-0.00
 000158,0.00000147,-0.00000105,0.00000090,-0.00000030,0.00000005,-0.000
 00145,-0.00000011,0.00000155,0.00000022,0.00000035,0.00000072,-0.00000
 206,-0.00000027,0.00000237,-0.00000054,-0.00000129,0.00000006,-0.00000
 294,0.00000010,0.00000355,0.00000392,0.00000862,0.00000698,-0.00000471
 ,-0.00000099,0.00000521,-0.00001107,-0.00003020,-0.00002061,-0.0000035
 8,0.00000582,0.00001814,0.00009531,0.00003096,0.00003654,-0.00043455,-
 0.00007246,0.00011003,-0.00128120,-0.00336734,-0.00086460,0.02192383,-
 0.00718213,-0.00063540,-0.05261841,0.00111888,0.05337984,-0.31103703,0
 .08686438,0.04654691,-0.00958642,0.00274479,0.00453616,0.00256443,0.00
 348376,-0.00038232,0.00013580,-0.00032553,0.00001107,0.00010944,-0.000
 05695,-0.00007165,-0.00007364,0.00010763,-0.00002258,0.00003743,-0.000
 08158,-0.00003502,-0.00003932,0.00001565,0.00000082,0.00003814,0.00000
 517,-0.00001128,-0.00002517,0.00000523,0.00000902,0.00002373,-0.000000
 19,-0.00001800,-0.00001869,0.00000019,0.00001080,0.00001874,0.00000308
 ,-0.00001631,-0.00001510,-0.00000126,0.00001144,0.00001558,0.00000312,
 -0.00001531,-0.00001460,-0.00000137,0.00001135,0.00001606,0.00000173,-
 0.00001309,-0.00001500,0.00000479,0.00000188,-0.00826728,0.00460810,-0
 .00006770,0.00021368,-0.00219569,-0.00167977,-0.00061251,0.00020841,0.
 00006749,0.00015771,-0.00007127,-0.00016244,-0.00003234,0.00000257,0.0
 0001272,0.00002841,0.00001737,0.00005224,-0.00001074,-0.00000026,0.000
 00723,-0.00000229,-0.00000775,-0.00000096,-0.00000383,-0.00000147,0.00
 000489,-0.00000063,-0.00000081,0.00000143,-0.00000304,-0.00000102,0.00
 000410,-0.00000045,-0.00000034,0.00000101,-0.00000256,-0.00000093,0.00
 000340,-0.00000025,-0.00000012,0.00000071,-0.00000215,-0.00000083,0.00
 000289,-0.00000016,-0.00000005,0.00000036,-0.00000154,-0.00000088,0.00
 000250,0.00000054,-0.00000013,0.00000002,-0.00000184,0.00000142,-0.000
 00092,0.32640691,0.08463113,-0.06317044,-0.00148354,0.01952911,-0.0020
 1408,-0.00314049,0.00253157,0.00516786,0.00653840,-0.00046043,-0.00053
 685,0.00014200,0.00003591,-0.00003944,-0.00017779,0.00000680,0.0001021
 8,0.00007279,-0.00006328,-0.00013008,-0.00009085,0.00000253,0.00000870
 ,-0.00001551,0.00000027,0.00001258,0.00003194,0.00000810,0.00000668,-0
 .00001336,-0.00000996,-0.00000952,0.00001397,0.00000760,0.00000320,-0.
 00001220,-0.00000848,-0.00000435,0.00001362,0.00000791,0.00000275,-0.0
 0001000,-0.00000886,-0.00000400,0.00001098,0.00000885,0.00000165,-0.00
 000876,-0.00001008,-0.00000175,0.00000910,0.00000973,-0.00000332,-0.00
 000190,-0.00958648,0.00538384,0.00211684,-0.00220129,-0.00450347,-0.00
 356220,0.00082898,-0.00033255,-0.00001866,-0.00001709,-0.00005372,-0.0
 0032210,0.00004028,-0.00001277,-0.00001641,0.00002640,0.00011996,0.000
 03278,0.00001308,-0.00000220,-0.00000528,-0.00000633,-0.00001247,-0.00
 001158,0.00000357,0.00000095,-0.00000346,0.00000022,0.00000026,-0.0000
 0110,0.00000264,0.00000132,-0.00000244,0.00000033,0.00000044,-0.000000
 45,0.00000201,0.00000098,-0.00000209,0.00000032,0.00000051,-0.00000013
 ,0.00000160,0.00000080,-0.00000178,0.00000018,0.00000024,-0.00000006,0
 .00000113,0.00000075,-0.00000156,-0.00000028,0.00000027,0.00000013,0.0
 0000126,-0.00000082,0.00000073,-0.09532896,0.06001590,0.05004600,-0.00
 293156,-0.05692815,-0.02175665,0.00772829,0.00603987,0.00111935,0.0059
 2462,0.00039353,0.00022459,0.00005194,-0.00085902,-0.00021588,-0.00011
 771,0.00018627,0.00013552,0.00000790,0.00005128,-0.00006437,-0.0000787
 5,-0.00004944,0.00002177,-0.00002406,0.00002324,-0.00000400,0.00002871
 ,-0.00000909,0.00000483,-0.00001153,0.00001631,-0.00000302,0.00000765,
 -0.00001463,-0.00000057,-0.00000741,0.00001044,0.00000153,0.00000613,-
 0.00000966,-0.00000270,-0.00000408,0.00000770,0.00000323,0.00000323,-0
 .00000772,-0.00000445,-0.00000216,0.00000592,0.00000517,0.00000148,-0.
 00000571,-0.00000569,0.00000124,0.00000122,0.02215373,-0.00707508,-0.0
 0049753,-0.00166815,-0.00356427,-0.00102943,-0.00090877,0.00038542,-0.
 00001623,-0.00024604,-0.00028841,0.00034002,-0.00004639,0.00000801,0.0
 0001087,0.00003857,0.00003773,0.00006739,-0.00001366,0.00000339,0.0000
 0335,-0.00000313,-0.00001064,-0.00000382,-0.00000292,-0.00000020,0.000
 00240,-0.00000016,-0.00000044,0.00000044,-0.00000157,-0.00000007,0.000
 00197,-0.00000004,-0.00000002,0.00000034,-0.00000116,-0.00000019,0.000
 00150,0.00000003,0.00000015,0.00000030,-0.00000089,-0.00000021,0.00000
 121,0.,0.00000009,0.00000013,-0.00000061,-0.00000026,0.00000101,0.0000
 0023,0.00000004,0.00000003,-0.00000065,0.00000062,-0.00000037,-0.04880
 308,-0.00007958,0.05226407\\-0.00000118,-0.00000138,0.00000568,-0.0000
 0412,-0.00000335,0.00000679,-0.00001864,0.00000659,0.00000278,-0.00000
 105,0.00000504,-0.00000881,0.00000868,-0.00000262,-0.00000076,0.000009
 18,-0.00000500,0.00000286,0.00000247,-0.00000510,0.00000599,-0.0000029
 6,0.00000375,-0.00000363,0.00000497,-0.00000487,0.00000468,-0.00000429
 ,0.00000436,-0.00000377,0.00000302,-0.00000271,0.00000252,0.,0.0000013
 9,-0.00000193,-0.00000031,-0.00000017,0.00000065,0.00000494,-0.0000011
 0,-0.00000131,-0.00000362,0.00000130,0.00000040,0.00000549,-0.00000189
 ,-0.00000055,-0.00000183,0.00000130,-0.00000077,-0.00000850,0.00000864
 ,-0.00000793,0.00000208,0.00000021,0.00000014,0.00000033,-0.00000065,-
 0.00000087,0.00000267,0.00000068,-0.00000221,-0.00000178,-0.00000073,0
 .00000071,0.00000250,-0.00000144,-0.00000006,-0.00000156,0.00000239,-0
 .00000205,0.00000100,0.00000015,-0.00000112,-0.00000160,0.00000013,0.0
 0000053,0.00000147,-0.00000020,-0.00000090,-0.00000178,0.00000008,0.00
 000074,0.00000199,-0.00000064,-0.00000056,-0.00000236,0.00000039,0.000
 00069,0.00000268,-0.00000112,-0.00000018,-0.00000278,0.00000038,0.0000
 0106,0.00000308,-0.00000093,-0.00000064,-0.00000308,0.00000064,0.00000
 091,0.00000211,-0.00000139,0.00000076,0.00000183,-0.00000219,0.0000021
 9,-0.00000003,-0.00000151,0.00000238,0.00000094,0.00000158,-0.00000439
 \\\@


     ON THE SURVIVAL OF THE FITTEST -
 "STRONG REPRESENTATIVES FROM EACH PAST ERA THRIVE TODAY,
 SUCH AS PROGRAMMING IN THE THIRTY YEAR OLD LANGUAGE KNOWN
 AS FORTRAN, AND EVEN IN THE ANCIENT SCRIPT KNOWN AS DIRECT
 MACHINE CODE. SOME PEOPLE MIGHT LOOK ON SUCH RELICS AS LIVING
 FOSSILS; OTHERS WOULD POINT OUT THAT EVEN A VERY OLD SPECIES
 MIGHT STILL BE FILLING A PARTICULAR ECOLOGICAL NICHE."
     -- ALAN KAY, SCI.AM. SEPTEMBER 1984
 Job cpu time:       0 days  0 hours 43 minutes 57.2 seconds.
 Elapsed time:       0 days  0 hours 43 minutes 57.2 seconds.
 File lengths (MBytes):  RWF=    544 Int=      0 D2E=      0 Chk=     13 Scr=      1
 Normal termination of Gaussian 16 at Fri Oct 27 18:45:18 2023.
