 Entering Gaussian System, Link 0=g16
 Input=benzeno.com
 Output=benzeno.log
 Initial command:
 /home/shohei/gaussian/g16/l1.exe "/home/shohei/gaussian/scratch/Gau-16881.inp" -scrdir="/home/shohei/gaussian/scratch/"
 Entering Link 1 = /home/shohei/gaussian/g16/l1.exe PID=     16883.
  
 Copyright (c) 1988-2017, Gaussian, Inc.  All Rights Reserved.
  
 This is part of the Gaussian(R) 16 program.  It is based on
 the Gaussian(R) 09 system (copyright 2009, Gaussian, Inc.),
 the Gaussian(R) 03 system (copyright 2003, Gaussian, Inc.),
 the Gaussian(R) 98 system (copyright 1998, Gaussian, Inc.),
 the Gaussian(R) 94 system (copyright 1995, Gaussian, Inc.),
 the Gaussian 92(TM) system (copyright 1992, Gaussian, Inc.),
 the Gaussian 90(TM) system (copyright 1990, Gaussian, Inc.),
 the Gaussian 88(TM) system (copyright 1988, Gaussian, Inc.),
 the Gaussian 86(TM) system (copyright 1986, Carnegie Mellon
 University), and the Gaussian 82(TM) system (copyright 1983,
 Carnegie Mellon University). Gaussian is a federally registered
 trademark of Gaussian, Inc.
  
 This software contains proprietary and confidential information,
 including trade secrets, belonging to Gaussian, Inc.
  
 This software is provided under written license and may be
 used, copied, transmitted, or stored only in accord with that
 written license.
  
 The following legend is applicable only to US Government
 contracts under FAR:
  
                    RESTRICTED RIGHTS LEGEND
  
 Use, reproduction and disclosure by the US Government is
 subject to restrictions as set forth in subparagraphs (a)
 and (c) of the Commercial Computer Software - Restricted
 Rights clause in FAR 52.227-19.
  
 Gaussian, Inc.
 340 Quinnipiac St., Bldg. 40, Wallingford CT 06492
  
  
 ---------------------------------------------------------------
 Warning -- This program may not be used in any manner that
 competes with the business of Gaussian, Inc. or will provide
 assistance to any competitor of Gaussian, Inc.  The licensee
 of this program is prohibited from giving any competitor of
 Gaussian, Inc. access to this program.  By using this program,
 the user acknowledges that Gaussian, Inc. is engaged in the
 business of creating and licensing software in the field of
 computational chemistry and represents and warrants to the
 licensee that it is not a competitor of Gaussian, Inc. and that
 it will not use this program in any manner prohibited above.
 ---------------------------------------------------------------
  

 Cite this work as:
 Gaussian 16, Revision B.01,
 M. J. Frisch, G. W. Trucks, H. B. Schlegel, G. E. Scuseria, 
 M. A. Robb, J. R. Cheeseman, G. Scalmani, V. Barone, 
 G. A. Petersson, H. Nakatsuji, X. Li, M. Caricato, A. V. Marenich, 
 J. Bloino, B. G. Janesko, R. Gomperts, B. Mennucci, H. P. Hratchian, 
 J. V. Ortiz, A. F. Izmaylov, J. L. Sonnenberg, D. Williams-Young, 
 F. Ding, F. Lipparini, F. Egidi, J. Goings, B. Peng, A. Petrone, 
 T. Henderson, D. Ranasinghe, V. G. Zakrzewski, J. Gao, N. Rega, 
 G. Zheng, W. Liang, M. Hada, M. Ehara, K. Toyota, R. Fukuda, 
 J. Hasegawa, M. Ishida, T. Nakajima, Y. Honda, O. Kitao, H. Nakai, 
 T. Vreven, K. Throssell, J. A. Montgomery, Jr., J. E. Peralta, 
 F. Ogliaro, M. J. Bearpark, J. J. Heyd, E. N. Brothers, K. N. Kudin, 
 V. N. Staroverov, T. A. Keith, R. Kobayashi, J. Normand, 
 K. Raghavachari, A. P. Rendell, J. C. Burant, S. S. Iyengar, 
 J. Tomasi, M. Cossi, J. M. Millam, M. Klene, C. Adamo, R. Cammi, 
 J. W. Ochterski, R. L. Martin, K. Morokuma, O. Farkas, 
 J. B. Foresman, and D. J. Fox, Gaussian, Inc., Wallingford CT, 2016.
 
 ******************************************
 Gaussian 16:  EM64L-G16RevB.01 20-Dec-2017
                10-Nov-2023 
 ******************************************
 %chk=checkpoint.chk
 %nproc=4
 Will use up to    4 processors via shared memory.
 ------------------------------
 # B3LYP/6-31G(d,p) OPT FREQ TD
 ------------------------------
 1/18=20,19=15,26=3,38=1/1,3;
 2/9=110,12=2,17=6,18=5,40=1/2;
 3/5=1,6=6,7=101,11=9,25=1,30=1,71=1,74=-5/1,2,3,8;
 4//1;
 5/5=2,38=5/2;
 8/6=1,10=2/1;
 9/15=2,42=1,70=2/14;
 10/5=4/2;
 6/7=2,8=2,9=2,10=2/1;
 7/12=6,13=5/1,2,3,16;
 1/18=20,19=15,26=3/3(2);
 2/9=110/2;
 99//99;
 2/9=110/2;
 3/5=1,6=6,7=101,11=9,25=1,30=1,71=1,74=-5/1,2,3,8;
 4/5=5,16=3,69=1/1;
 5/5=2,38=5/2;
 8/6=1,10=2/1;
 9/15=2,42=1,49=4,70=2/14;
 10/5=4/2;
 7/12=6,13=5/1,2,3,16;
 1/18=20,19=15,26=3/3(-8);
 2/9=110/2;
 6/7=2,8=2,9=2,10=2/1;
 99/9=10/99;
 -------
 Benzeno
 -------
 Symbolic Z-matrix:
 Charge =  0 Multiplicity = 1
 C                    -1.67839   1.88871  -0.10449 
 C                    -0.28329   1.78416  -0.09422 
 C                     0.3234    0.5249   -0.03485 
 C                    -0.46499  -0.62979   0.0142 
 C                    -1.86009  -0.52525   0.00395 
 C                    -2.46678   0.73401  -0.05537 
 H                    -2.14775   2.8629   -0.15043 
 H                    -3.54607   0.81487  -0.06326 
 H                    -2.47001  -1.41856   0.04193 
 H                     0.00437  -1.60398   0.06008 
 H                     1.40268   0.44402  -0.02688 
 H                     0.32666   2.67746  -0.13219 
 

 GradGradGradGradGradGradGradGradGradGradGradGradGradGradGradGradGradGrad
 Berny optimization.
 Initialization pass.
                           ----------------------------
                           !    Initial Parameters    !
                           ! (Angstroms and Degrees)  !
 --------------------------                            --------------------------
 ! Name  Definition              Value          Derivative Info.                !
 --------------------------------------------------------------------------------
 ! R1    R(1,2)                  1.399          estimate D2E/DX2                !
 ! R2    R(1,6)                  1.399          estimate D2E/DX2                !
 ! R3    R(1,7)                  1.0823         estimate D2E/DX2                !
 ! R4    R(2,3)                  1.399          estimate D2E/DX2                !
 ! R5    R(2,12)                 1.0823         estimate D2E/DX2                !
 ! R6    R(3,4)                  1.399          estimate D2E/DX2                !
 ! R7    R(3,11)                 1.0823         estimate D2E/DX2                !
 ! R8    R(4,5)                  1.399          estimate D2E/DX2                !
 ! R9    R(4,10)                 1.0823         estimate D2E/DX2                !
 ! R10   R(5,6)                  1.399          estimate D2E/DX2                !
 ! R11   R(5,9)                  1.0823         estimate D2E/DX2                !
 ! R12   R(6,8)                  1.0823         estimate D2E/DX2                !
 ! A1    A(2,1,6)              119.9999         estimate D2E/DX2                !
 ! A2    A(2,1,7)              120.0001         estimate D2E/DX2                !
 ! A3    A(6,1,7)              120.0            estimate D2E/DX2                !
 ! A4    A(1,2,3)              119.9996         estimate D2E/DX2                !
 ! A5    A(1,2,12)             120.0015         estimate D2E/DX2                !
 ! A6    A(3,2,12)             119.9989         estimate D2E/DX2                !
 ! A7    A(2,3,4)              120.0003         estimate D2E/DX2                !
 ! A8    A(2,3,11)             120.0            estimate D2E/DX2                !
 ! A9    A(4,3,11)             119.9997         estimate D2E/DX2                !
 ! A10   A(3,4,5)              120.0004         estimate D2E/DX2                !
 ! A11   A(3,4,10)             119.9997         estimate D2E/DX2                !
 ! A12   A(5,4,10)             120.0            estimate D2E/DX2                !
 ! A13   A(4,5,6)              119.9997         estimate D2E/DX2                !
 ! A14   A(4,5,9)              120.0001         estimate D2E/DX2                !
 ! A15   A(6,5,9)              120.0002         estimate D2E/DX2                !
 ! A16   A(1,6,5)              120.0001         estimate D2E/DX2                !
 ! A17   A(1,6,8)              120.0011         estimate D2E/DX2                !
 ! A18   A(5,6,8)              119.9987         estimate D2E/DX2                !
 ! D1    D(6,1,2,3)              0.0015         estimate D2E/DX2                !
 ! D2    D(6,1,2,12)          -179.9981         estimate D2E/DX2                !
 ! D3    D(7,1,2,3)           -179.9993         estimate D2E/DX2                !
 ! D4    D(7,1,2,12)             0.0011         estimate D2E/DX2                !
 ! D5    D(2,1,6,5)             -0.0036         estimate D2E/DX2                !
 ! D6    D(2,1,6,8)            179.9967         estimate D2E/DX2                !
 ! D7    D(7,1,6,5)            179.9972         estimate D2E/DX2                !
 ! D8    D(7,1,6,8)             -0.0025         estimate D2E/DX2                !
 ! D9    D(1,2,3,4)              0.0021         estimate D2E/DX2                !
 ! D10   D(1,2,3,11)          -179.9983         estimate D2E/DX2                !
 ! D11   D(12,2,3,4)          -179.9983         estimate D2E/DX2                !
 ! D12   D(12,2,3,11)            0.0013         estimate D2E/DX2                !
 ! D13   D(2,3,4,5)             -0.0035         estimate D2E/DX2                !
 ! D14   D(2,3,4,10)           179.9974         estimate D2E/DX2                !
 ! D15   D(11,3,4,5)           179.9969         estimate D2E/DX2                !
 ! D16   D(11,3,4,10)           -0.0023         estimate D2E/DX2                !
 ! D17   D(3,4,5,6)              0.0013         estimate D2E/DX2                !
 ! D18   D(3,4,5,9)           -179.9983         estimate D2E/DX2                !
 ! D19   D(10,4,5,6)          -179.9995         estimate D2E/DX2                !
 ! D20   D(10,4,5,9)             0.0008         estimate D2E/DX2                !
 ! D21   D(4,5,6,1)              0.0022         estimate D2E/DX2                !
 ! D22   D(4,5,6,8)           -179.9982         estimate D2E/DX2                !
 ! D23   D(9,5,6,1)           -179.9982         estimate D2E/DX2                !
 ! D24   D(9,5,6,8)              0.0015         estimate D2E/DX2                !
 --------------------------------------------------------------------------------
 Trust Radius=3.00D-01 FncErr=1.00D-07 GrdErr=1.00D-06 EigMax=2.50D+02 EigMin=1.00D-04
 Number of steps in this run=     64 maximum allowed number of steps=    100.
 GradGradGradGradGradGradGradGradGradGradGradGradGradGradGradGradGradGrad

                          Input orientation:                          
 ---------------------------------------------------------------------
 Center     Atomic      Atomic             Coordinates (Angstroms)
 Number     Number       Type             X           Y           Z
 ---------------------------------------------------------------------
      1          6           0       -1.678386    1.888710   -0.104491
      2          6           0       -0.283286    1.784161   -0.094220
      3          6           0        0.323402    0.524904   -0.034855
      4          6           0       -0.464993   -0.629792    0.014196
      5          6           0       -1.860086   -0.525248    0.003954
      6          6           0       -2.466782    0.734006   -0.055366
      7          1           0       -2.147746    2.862904   -0.150429
      8          1           0       -3.546068    0.814867   -0.063258
      9          1           0       -2.470008   -1.418560    0.041929
     10          1           0        0.004368   -1.603984    0.060079
     11          1           0        1.402684    0.444016   -0.026880
     12          1           0        0.326662    2.677456   -0.132193
 ---------------------------------------------------------------------
                    Distance matrix (angstroms):
                    1          2          3          4          5
     1  C    0.000000
     2  C    1.399049   0.000000
     3  C    2.423214   1.399043   0.000000
     4  C    2.798082   2.423209   1.399034   0.000000
     5  C    2.423215   2.798090   2.423210   1.399043   0.000000
     6  C    1.399043   2.423219   2.798083   2.423209   1.399042
     7  H    1.082342   2.154775   3.403847   3.880424   3.403845
     8  H    2.154780   3.403856   3.880423   3.403831   2.154753
     9  H    3.403841   3.880426   3.403833   2.154764   1.082336
    10  H    3.880419   3.403833   2.154753   1.082337   2.154764
    11  H    3.403844   2.154767   1.082339   2.154754   3.403835
    12  H    2.154787   1.082337   2.154753   3.403827   3.880427
                    6          7          8          9         10
     6  C    0.000000
     7  H    2.154769   0.000000
     8  H    1.082340   2.481403   0.000000
     9  H    2.154765   4.297881   2.481363   0.000000
    10  H    3.403836   4.962761   4.297865   2.481380   0.000000
    11  H    3.880421   4.297888   4.962762   4.297867   2.481361
    12  H    3.403855   2.481415   4.297910   4.962763   4.297856
                   11         12
    11  H    0.000000
    12  H    2.481364   0.000000
 Stoichiometry    C6H6
 Framework group  C1[X(C6H6)]
 Deg. of freedom    30
 Full point group                 C1      NOp   1
 Largest Abelian subgroup         C1      NOp   1
 Largest concise Abelian subgroup C1      NOp   1
                         Standard orientation:                         
 ---------------------------------------------------------------------
 Center     Atomic      Atomic             Coordinates (Angstroms)
 Number     Number       Type             X           Y           Z
 ---------------------------------------------------------------------
      1          6           0       -0.180770    1.387317   -0.000018
      2          6           0        1.111071    0.850208   -0.000003
      3          6           0        1.291830   -0.537109    0.000019
      4          6           0        0.180770   -1.387309   -0.000018
      5          6           0       -1.111067   -0.850208   -0.000003
      6          6           0       -1.291835    0.537107    0.000020
      7          1           0       -0.320621    2.460586   -0.000046
      8          1           0       -2.291245    0.952607    0.000061
      9          1           0       -1.970614   -1.507954   -0.000004
     10          1           0        0.320622   -2.460573   -0.000044
     11          1           0        2.291227   -0.952637    0.000059
     12          1           0        1.970638    1.507930   -0.000002
 ---------------------------------------------------------------------
 Rotational constants (GHZ):           5.6733403           5.6733164           2.8366642
 Standard basis: 6-31G(d,p) (6D, 7F)
 There are   120 symmetry adapted cartesian basis functions of A   symmetry.
 There are   120 symmetry adapted basis functions of A   symmetry.
   120 basis functions,   210 primitive gaussians,   120 cartesian basis functions
    21 alpha electrons       21 beta electrons
       nuclear repulsion energy       203.0194152132 Hartrees.
 NAtoms=   12 NActive=   12 NUniq=   12 SFac= 1.00D+00 NAtFMM=   60 NAOKFM=F Big=F
 Integral buffers will be    131072 words long.
 Regular integral format.
 Two-electron integral symmetry is turned on.
 One-electron integrals computed using PRISM.
 NBasis=   120 RedAO= T EigKep=  5.27D-04  NBF=   120
 NBsUse=   120 1.00D-06 EigRej= -1.00D+00 NBFU=   120
 ExpMin= 1.61D-01 ExpMax= 3.05D+03 ExpMxC= 4.57D+02 IAcc=3 IRadAn=         5 AccDes= 0.00D+00
 Harris functional with IExCor=  402 and IRadAn=       5 diagonalized for initial guess.
 HarFok:  IExCor=  402 AccDes= 0.00D+00 IRadAn=         5 IDoV= 1 UseB2=F ITyADJ=14
 ICtDFT=  3500011 ScaDFX=  1.000000  1.000000  1.000000  1.000000
 FoFCou: FMM=F IPFlag=           0 FMFlag=      100000 FMFlg1=           0
         NFxFlg=           0 DoJE=T BraDBF=F KetDBF=T FulRan=T
         wScrn=  0.000000 ICntrl=       500 IOpCl=  0 I1Cent=   200000004 NGrid=           0
         NMat0=    1 NMatS0=      1 NMatT0=    0 NMatD0=    1 NMtDS0=    0 NMtDT0=    0
 Petite list used in FoFCou.
 Keep R1 ints in memory in canonical form, NReq=30147728.
 Requested convergence on RMS density matrix=1.00D-08 within 128 cycles.
 Requested convergence on MAX density matrix=1.00D-06.
 Requested convergence on             energy=1.00D-06.
 No special actions if energy rises.
 Integral accuracy reduced to 1.0D-05 until final iterations.
 Initial convergence to 1.0D-05 achieved.  Increase integral accuracy.
 SCF Done:  E(RB3LYP) =  -232.258102812     A.U. after   10 cycles
            NFock= 10  Conv=0.30D-08     -V/T= 2.0101
 DoSCS=F DFT=T ScalE2(SS,OS)=  1.000000  1.000000
 ExpMin= 1.61D-01 ExpMax= 3.05D+03 ExpMxC= 4.57D+02 IAcc=3 IRadAn=         5 AccDes= 0.00D+00
 HarFok:  IExCor=  205 AccDes= 0.00D+00 IRadAn=         5 IDoV=-2 UseB2=F ITyADJ=14
 ICtDFT= 12500011 ScaDFX=  1.000000  1.000000  1.000000  1.000000
 Range of M.O.s used for correlation:     7   120
 NBasis=   120 NAE=    21 NBE=    21 NFC=     6 NFV=     0
 NROrb=    114 NOA=    15 NOB=    15 NVA=    99 NVB=    99

 **** Warning!!: The largest alpha MO coefficient is  0.10653218D+02

 Keep R1, R2, and R3 ints in memory in canonical form, NReq=86370860.
 Orbital symmetries:
       Occupied  (A) (A) (A) (A) (A) (A) (A) (A) (A) (A) (A) (A)
                 (A) (A) (A) (A) (A) (A) (A) (A) (A)
       Virtual   (A) (A) (A) (A) (A) (A) (A) (A) (A) (A) (A) (A)
                 (A) (A) (A) (A) (A) (A) (A) (A) (A) (A) (A) (A)
                 (A) (A) (A) (A) (A) (A) (A) (A) (A) (A) (A) (A)
                 (A) (A) (A) (A) (A) (A) (A) (A) (A) (A) (A) (A)
                 (A) (A) (A) (A) (A) (A) (A) (A) (A) (A) (A) (A)
                 (A) (A) (A) (A) (A) (A) (A) (A) (A) (A) (A) (A)
                 (A) (A) (A) (A) (A) (A) (A) (A) (A) (A) (A) (A)
                 (A) (A) (A) (A) (A) (A) (A) (A) (A) (A) (A) (A)
                 (A) (A) (A)
    12 initial guesses have been made.
 Convergence on wavefunction:    0.000001000000000
 Iteration     1 Dimension    12 NMult     0 NNew     12
 CISAX will form    12 AO SS matrices at one time.
 New state      1 was old state      2
 New state      2 was old state      1
 New state      3 was old state      7
 Iteration     2 Dimension    18 NMult    12 NNew      6
 Iteration     3 Dimension    24 NMult    18 NNew      6
 Iteration     4 Dimension    30 NMult    24 NNew      6
 Iteration     5 Dimension    36 NMult    30 NNew      6
 Iteration     6 Dimension    42 NMult    36 NNew      6
 No map to state      3
 Iteration     7 Dimension    48 NMult    42 NNew      6
 Iteration     8 Dimension    54 NMult    48 NNew      6
 Iteration     9 Dimension    58 NMult    54 NNew      4
 Iteration    10 Dimension    60 NMult    58 NNew      2
 Iteration    11 Dimension    62 NMult    60 NNew      2
 Iteration    12 Dimension    64 NMult    62 NNew      2
 Iteration    13 Dimension    66 NMult    64 NNew      2
 Iteration    14 Dimension    68 NMult    66 NNew      2
 Iteration    15 Dimension    70 NMult    68 NNew      2
 Iteration    16 Dimension    72 NMult    70 NNew      2
 Iteration    17 Dimension    74 NMult    72 NNew      2
 Iteration    18 Dimension    76 NMult    74 NNew      2
 Iteration    19 Dimension    78 NMult    76 NNew      2
 Iteration    20 Dimension    80 NMult    78 NNew      2
 Iteration    21 Dimension    82 NMult    80 NNew      2
 Iteration    22 Dimension    84 NMult    82 NNew      2
 Iteration    23 Dimension    86 NMult    84 NNew      2
 Iteration    24 Dimension    88 NMult    86 NNew      2
 Iteration    25 Dimension    90 NMult    88 NNew      2
 Iteration    26 Dimension    92 NMult    90 NNew      2
 ***********************************************************************
 Excited states from <AA,BB:AA,BB> singles matrix:
 ***********************************************************************
 
 Ground to excited state transition densities written to RWF  633
 Ground to excited state transition electric dipole moments (Au):
       state          X           Y           Z        Dip. S.      Osc.
         1        -0.0000      0.0000     -0.0000      0.0000      0.0000
         2        -0.0001     -0.0000     -0.0000      0.0000      0.0000
         3        -1.2317      1.2549      0.0000      3.0919      0.5557
 Ground to excited state transition velocity dipole moments (Au):
       state          X           Y           Z        Dip. S.      Osc.
         1         0.0000     -0.0000     -0.0000      0.0000      0.0000
         2         0.0000      0.0000      0.0000      0.0000      0.0000
         3         0.3316     -0.3378     -0.0000      0.2241      0.5541
 Ground to excited state transition magnetic dipole moments (Au):
       state          X           Y           Z
         1        -0.0000      0.0000     -0.0000
         2         0.0000      0.0000     -0.0000
         3         0.0000      0.0000      0.0000
 Ground to excited state transition velocity quadrupole moments (Au):
       state          XX          YY          ZZ          XY          XZ          YZ
         1         0.0000      0.0000     -0.0000      0.0000     -0.0000     -0.0000
         2         0.0000     -0.0000     -0.0000      0.0000     -0.0000      0.0000
         3        -0.0000     -0.0000      0.0000      0.0000      0.0000      0.0000
 <0|del|b> * <b|rxdel|0> + <0|del|b> * <b|delr+rdel|0>
 Rotatory Strengths (R) in cgs (10**-40 erg-esu-cm/Gauss)
       state          XX          YY          ZZ    R(velocity)    E-M Angle
         1        -0.0000     -0.0000      0.0000     -0.0000       90.00
         2         0.0000      0.0000     -0.0000      0.0000       90.00
         3         0.0023      0.0040     -0.0076     -0.0004       90.00
 1/2[<0|r|b>*<b|rxdel|0> + (<0|rxdel|b>*<b|r|0>)*]
 Rotatory Strengths (R) in cgs (10**-40 erg-esu-cm/Gauss)
       state          XX          YY          ZZ     R(length)
         1        -0.0000     -0.0000     -0.0000     -0.0000
         2         0.0000      0.0000     -0.0000      0.0000
         3         0.0028     -0.0041     -0.0000     -0.0004
  1/2[<0|del|b>*<b|r|0> + (<0|r|b>*<b|del|0>)*] (Au)
       state          X           Y           Z        Dip. S.   Osc.(frdel)
         1        -0.0000     -0.0000      0.0000      0.0000      0.0000
         2        -0.0000     -0.0000     -0.0000      0.0000      0.0000
         3        -0.4084     -0.4240     -0.0000      0.8323      0.5549

 Excitation energies and oscillator strengths:
 
 Excited State   1:      Singlet-A      5.5082 eV  225.09 nm  f=0.0000  <S**2>=0.000
      20 -> 22         0.49971
      21 -> 23        -0.49970
 This state for optimization and/or second-order correction.
 Total Energy, E(TD-HF/TD-DFT) =  -232.055681778    
 Copying the excited state density for this state as the 1-particle RhoCI density.
 
 Excited State   2:      Singlet-A      6.2766 eV  197.53 nm  f=0.0000  <S**2>=0.000
      20 -> 23         0.49820
      21 -> 22         0.49824
 
 Excited State   3:      Singlet-A      7.3363 eV  169.00 nm  f=0.5557  <S**2>=0.000
      20 -> 22         0.41037
      20 -> 23        -0.28227
      21 -> 22         0.28225
      21 -> 23         0.41037
 SavETr:  write IOETrn=   770 NScale= 10 NData=  16 NLR=1 NState=    3 LETran=      64.
          IDoAtm=111111111111
          Differentiating once with respect to electric field.
                with respect to dipole field.
          Differentiating once with respect to nuclear coordinates.
 Keep R1 ints in memory in canonical form, NReq=30156232.
          There are     1 degrees of freedom in the 1st order CPHF.  IDoFFX=0 NUNeed=     1.
 LinEq1:  Iter=  0 NonCon=     1 RMS=1.57D-03 Max=2.32D-02 NDo=     1
 AX will form     1 AO Fock derivatives at one time.
 LinEq1:  Iter=  1 NonCon=     1 RMS=4.84D-04 Max=1.03D-02 NDo=     1
 LinEq1:  Iter=  2 NonCon=     1 RMS=1.26D-04 Max=2.00D-03 NDo=     1
 LinEq1:  Iter=  3 NonCon=     1 RMS=5.46D-06 Max=7.39D-05 NDo=     1
 LinEq1:  Iter=  4 NonCon=     1 RMS=4.89D-07 Max=7.61D-06 NDo=     1
 LinEq1:  Iter=  5 NonCon=     1 RMS=2.27D-07 Max=4.82D-06 NDo=     1
 LinEq1:  Iter=  6 NonCon=     1 RMS=5.05D-08 Max=1.08D-06 NDo=     1
 LinEq1:  Iter=  7 NonCon=     1 RMS=4.57D-08 Max=7.63D-07 NDo=     1
 LinEq1:  Iter=  8 NonCon=     1 RMS=5.12D-09 Max=7.18D-08 NDo=     1
 LinEq1:  Iter=  9 NonCon=     1 RMS=2.41D-10 Max=4.14D-09 NDo=     1
 LinEq1:  Iter= 10 NonCon=     1 RMS=7.76D-11 Max=1.08D-09 NDo=     1
 LinEq1:  Iter= 11 NonCon=     0 RMS=2.53D-11 Max=6.31D-10 NDo=     1
 Linear equations converged to 1.000D-10 1.000D-09 after    11 iterations.
 End of Minotr F.D. properties file   721 does not exist.
 End of Minotr F.D. properties file   722 does not exist.
 End of Minotr F.D. properties file   788 does not exist.

 **********************************************************************

            Population analysis using the SCF Density.

 **********************************************************************

 Orbital symmetries:
       Occupied  (A) (A) (A) (A) (A) (A) (A) (A) (A) (A) (A) (A)
                 (A) (A) (A) (A) (A) (A) (A) (A) (A)
       Virtual   (A) (A) (A) (A) (A) (A) (A) (A) (A) (A) (A) (A)
                 (A) (A) (A) (A) (A) (A) (A) (A) (A) (A) (A) (A)
                 (A) (A) (A) (A) (A) (A) (A) (A) (A) (A) (A) (A)
                 (A) (A) (A) (A) (A) (A) (A) (A) (A) (A) (A) (A)
                 (A) (A) (A) (A) (A) (A) (A) (A) (A) (A) (A) (A)
                 (A) (A) (A) (A) (A) (A) (A) (A) (A) (A) (A) (A)
                 (A) (A) (A) (A) (A) (A) (A) (A) (A) (A) (A) (A)
                 (A) (A) (A) (A) (A) (A) (A) (A) (A) (A) (A) (A)
                 (A) (A) (A)
 The electronic state is 1-A.
 Alpha  occ. eigenvalues --  -10.18812 -10.18786 -10.18786 -10.18732 -10.18732
 Alpha  occ. eigenvalues --  -10.18706  -0.84534  -0.73958  -0.73958  -0.59759
 Alpha  occ. eigenvalues --   -0.59759  -0.51795  -0.45992  -0.43762  -0.41679
 Alpha  occ. eigenvalues --   -0.41679  -0.35890  -0.34001  -0.34001  -0.24643
 Alpha  occ. eigenvalues --   -0.24643
 Alpha virt. eigenvalues --    0.00213   0.00213   0.09265   0.14627   0.14627
 Alpha virt. eigenvalues --    0.16048   0.18197   0.18197   0.19131   0.30002
 Alpha virt. eigenvalues --    0.30002   0.31660   0.31660   0.46817   0.52744
 Alpha virt. eigenvalues --    0.54568   0.54944   0.55848   0.59153   0.60013
 Alpha virt. eigenvalues --    0.60013   0.60203   0.60203   0.62453   0.62453
 Alpha virt. eigenvalues --    0.66707   0.66707   0.74223   0.82230   0.82230
 Alpha virt. eigenvalues --    0.82662   0.84702   0.84702   0.92697   0.93586
 Alpha virt. eigenvalues --    0.93587   0.95658   1.07756   1.07756   1.12793
 Alpha virt. eigenvalues --    1.12793   1.20012   1.26193   1.30112   1.40597
 Alpha virt. eigenvalues --    1.40597   1.42740   1.42740   1.43218   1.43218
 Alpha virt. eigenvalues --    1.75243   1.75474   1.81679   1.88131   1.92750
 Alpha virt. eigenvalues --    1.92751   1.96492   1.96492   1.97632   1.97632
 Alpha virt. eigenvalues --    2.02092   2.07004   2.07005   2.29390   2.29391
 Alpha virt. eigenvalues --    2.35793   2.35794   2.37067   2.41321   2.41850
 Alpha virt. eigenvalues --    2.41850   2.44167   2.44168   2.49560   2.49560
 Alpha virt. eigenvalues --    2.53020   2.59006   2.60359   2.60359   2.65237
 Alpha virt. eigenvalues --    2.77415   2.81066   2.81067   3.05103   3.05104
 Alpha virt. eigenvalues --    3.19085   3.24382   3.25641   3.25641   3.39722
 Alpha virt. eigenvalues --    3.51453   3.51454   3.95237   4.12736   4.16132
 Alpha virt. eigenvalues --    4.16132   4.43835   4.43835   4.82887
          Condensed to atoms (all electrons):
               1          2          3          4          5          6
     1  C    4.804622   0.548225  -0.035483  -0.040085  -0.035484   0.548225
     2  C    0.548225   4.804625   0.548226  -0.035484  -0.040085  -0.035482
     3  C   -0.035483   0.548226   4.804613   0.548232  -0.035484  -0.040085
     4  C   -0.040085  -0.035484   0.548232   4.804609   0.548229  -0.035483
     5  C   -0.035484  -0.040085  -0.035484   0.548229   4.804620   0.548226
     6  C    0.548225  -0.035482  -0.040085  -0.035483   0.548226   4.804620
     7  H    0.369089  -0.042404   0.004818   0.000592   0.004818  -0.042404
     8  H   -0.042404   0.004817   0.000592   0.004818  -0.042405   0.369090
     9  H    0.004818   0.000592   0.004818  -0.042404   0.369091  -0.042404
    10  H    0.000592   0.004818  -0.042405   0.369089  -0.042405   0.004818
    11  H    0.004818  -0.042405   0.369090  -0.042405   0.004818   0.000592
    12  H   -0.042403   0.369091  -0.042404   0.004818   0.000592   0.004817
               7          8          9         10         11         12
     1  C    0.369089  -0.042404   0.004818   0.000592   0.004818  -0.042403
     2  C   -0.042404   0.004817   0.000592   0.004818  -0.042405   0.369091
     3  C    0.004818   0.000592   0.004818  -0.042405   0.369090  -0.042404
     4  C    0.000592   0.004818  -0.042404   0.369089  -0.042405   0.004818
     5  C    0.004818  -0.042405   0.369091  -0.042405   0.004818   0.000592
     6  C   -0.042404   0.369090  -0.042404   0.004818   0.000592   0.004817
     7  H    0.634132  -0.006402  -0.000189   0.000015  -0.000189  -0.006402
     8  H   -0.006402   0.634133  -0.006403  -0.000189   0.000015  -0.000189
     9  H   -0.000189  -0.006403   0.634130  -0.006403  -0.000189   0.000015
    10  H    0.000015  -0.000189  -0.006403   0.634136  -0.006403  -0.000189
    11  H   -0.000189   0.000015  -0.000189  -0.006403   0.634135  -0.006403
    12  H   -0.006402  -0.000189   0.000015  -0.000189  -0.006403   0.634128
 Mulliken charges:
               1
     1  C   -0.084529
     2  C   -0.084532
     3  C   -0.084526
     4  C   -0.084525
     5  C   -0.084530
     6  C   -0.084528
     7  H    0.084529
     8  H    0.084528
     9  H    0.084529
    10  H    0.084527
    11  H    0.084527
    12  H    0.084530
 Sum of Mulliken charges =  -0.00000
 Mulliken charges with hydrogens summed into heavy atoms:
               1
     1  C   -0.000000
     2  C   -0.000003
     3  C    0.000002
     4  C    0.000002
     5  C   -0.000001
     6  C   -0.000000
 Electronic spatial extent (au):  <R**2>=            458.9647
 Charge=             -0.0000 electrons
 Dipole moment (field-independent basis, Debye):
    X=              0.0000    Y=             -0.0000    Z=              0.0000  Tot=              0.0000
 Quadrupole moment (field-independent basis, Debye-Ang):
   XX=            -31.4403   YY=            -31.4405   ZZ=            -38.5444
   XY=              0.0001   XZ=              0.0000   YZ=             -0.0000
 Traceless Quadrupole moment (field-independent basis, Debye-Ang):
   XX=              2.3681   YY=              2.3679   ZZ=             -4.7360
   XY=              0.0001   XZ=              0.0000   YZ=             -0.0000
 Octapole moment (field-independent basis, Debye-Ang**2):
  XXX=              0.0000  YYY=             -0.0001  ZZZ=              0.0000  XYY=              0.0000
  XXY=             -0.0001  XXZ=              0.0004  XZZ=              0.0000  YZZ=             -0.0001
  YYZ=             -0.0003  XYZ=             -0.0001
 Hexadecapole moment (field-independent basis, Debye-Ang**3):
 XXXX=           -270.9832 YYYY=           -270.9835 ZZZZ=            -39.9390 XXXY=              0.0005
 XXXZ=              0.0000 YYYX=             -0.0000 YYYZ=             -0.0000 ZZZX=              0.0000
 ZZZY=             -0.0000 XXYY=            -90.3279 XXZZ=            -60.4902 YYZZ=            -60.4900
 XXYZ=              0.0000 YYXZ=              0.0000 ZZXY=              0.0000
 N-N= 2.030194152132D+02 E-N=-9.434009532176D+02  KE= 2.299351780819D+02
 Calling FoFJK, ICntrl=  10005127 FMM=F ISym2X=0 I1Cent= 0 IOpClX= 0 NMat=1 NMatS=1 NMatT=0.
 ***** Axes restored to original set *****
 -------------------------------------------------------------------
 Center     Atomic                   Forces (Hartrees/Bohr)
 Number     Number              X              Y              Z
 -------------------------------------------------------------------
      1        6          -0.010730006    0.022285708   -0.001050117
      2        6           0.013950465    0.020425636   -0.000868168
      3        6           0.024689553   -0.001844140    0.000181292
      4        6           0.010729362   -0.022288616    0.001050464
      5        6          -0.013950964   -0.020426701    0.000868409
      6        6          -0.024688059    0.001847484   -0.000181298
      7        1          -0.000739856    0.001536062   -0.000072223
      8        1          -0.001702001    0.000129926   -0.000012992
      9        1          -0.000963846   -0.001411460    0.000059956
     10        1           0.000741163   -0.001539420    0.000072679
     11        1           0.001703553   -0.000126818    0.000012124
     12        1           0.000960637    0.001412338   -0.000060128
 -------------------------------------------------------------------
 Cartesian Forces:  Max     0.024689553 RMS     0.010130498

 GradGradGradGradGradGradGradGradGradGradGradGradGradGradGradGradGradGrad
 Berny optimization.
 FormGI is forming the generalized inverse of G from B-inverse, IUseBI=4.
 Internal  Forces:  Max     0.026472000 RMS     0.008839765
 Search for a local minimum.
 Step number   1 out of a maximum of   64
 All quantities printed in internal units (Hartrees-Bohrs-Radians)
 Mixed Optimization -- RFO/linear search
 Second derivative matrix not updated -- first step.
 ITU=  0
     Eigenvalues ---    0.02101   0.02101   0.02101   0.02101   0.02101
     Eigenvalues ---    0.02101   0.02101   0.02101   0.02101   0.16000
     Eigenvalues ---    0.16000   0.16000   0.16000   0.16000   0.16000
     Eigenvalues ---    0.22000   0.22000   0.22000   0.35713   0.35713
     Eigenvalues ---    0.35713   0.35713   0.35713   0.35714   0.41578
     Eigenvalues ---    0.41578   0.45779   0.45779   0.45780   0.45781
 RFO step:  Lambda=-9.04894146D-03 EMin= 2.10135967D-02
 Linear search not attempted -- first point.
 Iteration  1 RMS(Cart)=  0.02784415 RMS(Int)=  0.00000016
 Iteration  2 RMS(Cart)=  0.00000013 RMS(Int)=  0.00000002
 Variable       Old X    -DE/DX   Delta X   Delta X   Delta X     New X
                                 (Linear)    (Quad)   (Total)
    R1        2.64382   0.02646   0.00000   0.05668   0.05668   2.70050
    R2        2.64381   0.02646   0.00000   0.05669   0.05669   2.70050
    R3        2.04533   0.00171   0.00000   0.00466   0.00466   2.04999
    R4        2.64381   0.02646   0.00000   0.05668   0.05668   2.70049
    R5        2.04532   0.00171   0.00000   0.00467   0.00467   2.04999
    R6        2.64379   0.02647   0.00000   0.05670   0.05670   2.70049
    R7        2.04532   0.00171   0.00000   0.00467   0.00467   2.04999
    R8        2.64381   0.02646   0.00000   0.05669   0.05669   2.70050
    R9        2.04532   0.00171   0.00000   0.00467   0.00467   2.04999
   R10        2.64381   0.02646   0.00000   0.05668   0.05668   2.70049
   R11        2.04532   0.00171   0.00000   0.00467   0.00467   2.04999
   R12        2.04533   0.00171   0.00000   0.00466   0.00466   2.04999
    A1        2.09439   0.00000   0.00000   0.00000   0.00000   2.09440
    A2        2.09440  -0.00000   0.00000   0.00000   0.00000   2.09440
    A3        2.09439  -0.00000   0.00000  -0.00001  -0.00001   2.09439
    A4        2.09439   0.00000   0.00000   0.00001   0.00001   2.09439
    A5        2.09442  -0.00000   0.00000  -0.00003  -0.00003   2.09439
    A6        2.09438   0.00000   0.00000   0.00002   0.00002   2.09440
    A7        2.09440  -0.00000   0.00000  -0.00001  -0.00001   2.09439
    A8        2.09440  -0.00000   0.00000  -0.00001  -0.00001   2.09439
    A9        2.09439   0.00000   0.00000   0.00001   0.00001   2.09440
   A10        2.09440  -0.00000   0.00000  -0.00000  -0.00000   2.09440
   A11        2.09439   0.00000   0.00000  -0.00000  -0.00000   2.09439
   A12        2.09439   0.00000   0.00000   0.00000   0.00000   2.09440
   A13        2.09439   0.00000   0.00000   0.00000   0.00000   2.09439
   A14        2.09440  -0.00000   0.00000  -0.00001  -0.00001   2.09439
   A15        2.09440   0.00000   0.00000   0.00000   0.00000   2.09440
   A16        2.09440  -0.00000   0.00000  -0.00000  -0.00000   2.09439
   A17        2.09441  -0.00000   0.00000  -0.00001  -0.00001   2.09441
   A18        2.09437   0.00000   0.00000   0.00001   0.00001   2.09438
    D1        0.00003  -0.00000   0.00000  -0.00001  -0.00001   0.00002
    D2       -3.14156  -0.00000   0.00000  -0.00001  -0.00001  -3.14157
    D3       -3.14158   0.00000   0.00000   0.00000   0.00000  -3.14158
    D4        0.00002  -0.00000   0.00000  -0.00000  -0.00000   0.00002
    D5       -0.00006   0.00000   0.00000   0.00002   0.00002  -0.00004
    D6        3.14154   0.00000   0.00000   0.00002   0.00002   3.14155
    D7        3.14154   0.00000   0.00000   0.00001   0.00001   3.14156
    D8       -0.00004   0.00000   0.00000   0.00000   0.00000  -0.00004
    D9        0.00004  -0.00000   0.00000  -0.00001  -0.00001   0.00002
   D10       -3.14156  -0.00000   0.00000  -0.00001  -0.00001  -3.14157
   D11       -3.14156  -0.00000   0.00000  -0.00001  -0.00001  -3.14157
   D12        0.00002  -0.00000   0.00000  -0.00000  -0.00000   0.00002
   D13       -0.00006   0.00000   0.00000   0.00002   0.00002  -0.00004
   D14        3.14155   0.00000   0.00000   0.00001   0.00001   3.14156
   D15        3.14154   0.00000   0.00000   0.00002   0.00002   3.14155
   D16       -0.00004   0.00000   0.00000   0.00000   0.00000  -0.00004
   D17        0.00002  -0.00000   0.00000  -0.00001  -0.00001   0.00001
   D18       -3.14156  -0.00000   0.00000  -0.00001  -0.00001  -3.14158
   D19       -3.14158   0.00000   0.00000   0.00000   0.00000  -3.14158
   D20        0.00001  -0.00000   0.00000  -0.00000  -0.00000   0.00001
   D21        0.00004  -0.00000   0.00000  -0.00001  -0.00001   0.00002
   D22       -3.14156  -0.00000   0.00000  -0.00001  -0.00001  -3.14157
   D23       -3.14156  -0.00000   0.00000  -0.00001  -0.00001  -3.14157
   D24        0.00003  -0.00000   0.00000  -0.00000  -0.00000   0.00002
         Item               Value     Threshold  Converged?
 Maximum Force            0.026472     0.000450     NO 
 RMS     Force            0.008840     0.000300     NO 
 Maximum Displacement     0.061191     0.001800     NO 
 RMS     Displacement     0.027844     0.001200     NO 
 Predicted change in Energy=-4.612298D-03
 GradGradGradGradGradGradGradGradGradGradGradGradGradGradGradGradGradGrad

                          Input orientation:                          
 ---------------------------------------------------------------------
 Center     Atomic      Atomic             Coordinates (Angstroms)
 Number     Number       Type             X           Y           Z
 ---------------------------------------------------------------------
      1          6           0       -1.691388    1.915707   -0.105756
      2          6           0       -0.266381    1.808914   -0.095270
      3          6           0        0.353320    0.522661   -0.034640
      4          6           0       -0.451986   -0.656799    0.015476
      5          6           0       -1.876993   -0.550006    0.005009
      6          6           0       -2.496694    0.736247   -0.055592
      7          1           0       -2.161819    2.892121   -0.151794
      8          1           0       -3.578440    0.817306   -0.063513
      9          1           0       -2.488306   -1.445357    0.043068
     10          1           0        0.018445   -1.633216    0.061468
     11          1           0        1.435065    0.441600   -0.026658
     12          1           0        0.344937    2.704262   -0.133333
 ---------------------------------------------------------------------
                    Distance matrix (angstroms):
                    1          2          3          4          5
     1  C    0.000000
     2  C    1.429042   0.000000
     3  C    2.475169   1.429038   0.000000
     4  C    2.858077   2.475167   1.429040   0.000000
     5  C    2.475168   2.858082   2.475173   1.429042   0.000000
     6  C    1.429041   2.475174   2.858083   2.475169   1.429038
     7  H    1.084808   2.183854   3.457453   3.942885   3.457448
     8  H    2.183857   3.457460   3.942890   3.457447   2.183840
     9  H    3.457452   3.942889   3.457452   2.183847   1.084807
    10  H    3.942885   3.457448   2.183846   1.084808   2.183853
    11  H    3.457449   2.183843   1.084807   2.183853   3.457457
    12  H    2.183850   1.084807   2.183848   3.457450   3.942889
                    6          7          8          9         10
     6  C    0.000000
     7  H    2.183847   0.000000
     8  H    1.084807   2.513854   0.000000
     9  H    2.183851   4.354111   2.513841   0.000000
    10  H    3.457453   5.027693   4.354108   2.513848   0.000000
    11  H    3.942890   4.354111   5.027697   4.354114   2.513849
    12  H    3.457455   2.513853   4.354120   5.027696   4.354108
                   11         12
    11  H    0.000000
    12  H    2.513841   0.000000
 Stoichiometry    C6H6
 Framework group  C1[X(C6H6)]
 Deg. of freedom    30
 Full point group                 C1      NOp   1
 Largest Abelian subgroup         C1      NOp   1
 Largest concise Abelian subgroup C1      NOp   1
                         Standard orientation:                         
 ---------------------------------------------------------------------
 Center     Atomic      Atomic             Coordinates (Angstroms)
 Number     Number       Type             X           Y           Z
 ---------------------------------------------------------------------
      1          6           0       -0.132758    1.422859   -0.000011
      2          6           0        1.165856    0.826401   -0.000002
      3          6           0        1.298613   -0.596458    0.000012
      4          6           0        0.132758   -1.422858   -0.000011
      5          6           0       -1.165856   -0.826400   -0.000002
      6          6           0       -1.298614    0.596458    0.000013
      7          1           0       -0.233542    2.502975   -0.000036
      8          1           0       -2.284416    1.049228    0.000044
      9          1           0       -2.050870   -1.453741   -0.000005
     10          1           0        0.233542   -2.502974   -0.000034
     11          1           0        2.284413   -1.049233    0.000042
     12          1           0        2.050874    1.453736   -0.000003
 ---------------------------------------------------------------------
 Rotational constants (GHZ):           5.4562429           5.4562136           2.7281141
 Standard basis: 6-31G(d,p) (6D, 7F)
 There are   120 symmetry adapted cartesian basis functions of A   symmetry.
 There are   120 symmetry adapted basis functions of A   symmetry.
   120 basis functions,   210 primitive gaussians,   120 cartesian basis functions
    21 alpha electrons       21 beta electrons
       nuclear repulsion energy       199.3284052930 Hartrees.
 NAtoms=   12 NActive=   12 NUniq=   12 SFac= 1.00D+00 NAtFMM=   60 NAOKFM=F Big=F
 Integral buffers will be    131072 words long.
 Regular integral format.
 Two-electron integral symmetry is turned on.
 One-electron integrals computed using PRISM.
 NBasis=   120 RedAO= T EigKep=  6.46D-04  NBF=   120
 NBsUse=   120 1.00D-06 EigRej= -1.00D+00 NBFU=   120
 Initial guess from the checkpoint file:  "checkpoint.chk"
 B after Tr=     0.000000    0.000000    0.000000
         Rot=    0.999833    0.000000    0.000000    0.018267 Ang=   2.09 deg.
 ExpMin= 1.61D-01 ExpMax= 3.05D+03 ExpMxC= 4.57D+02 IAcc=3 IRadAn=         5 AccDes= 0.00D+00
 Harris functional with IExCor=  402 and IRadAn=       5 diagonalized for initial guess.
 HarFok:  IExCor=  402 AccDes= 0.00D+00 IRadAn=         5 IDoV= 1 UseB2=F ITyADJ=14
 ICtDFT=  3500011 ScaDFX=  1.000000  1.000000  1.000000  1.000000
 FoFCou: FMM=F IPFlag=           0 FMFlag=      100000 FMFlg1=           0
         NFxFlg=           0 DoJE=T BraDBF=F KetDBF=T FulRan=T
         wScrn=  0.000000 ICntrl=       500 IOpCl=  0 I1Cent=   200000004 NGrid=           0
         NMat0=    1 NMatS0=      1 NMatT0=    0 NMatD0=    1 NMtDS0=    0 NMtDT0=    0
 Petite list used in FoFCou.
 Keep R1 ints in memory in canonical form, NReq=30147728.
 Requested convergence on RMS density matrix=1.00D-08 within 128 cycles.
 Requested convergence on MAX density matrix=1.00D-06.
 Requested convergence on             energy=1.00D-06.
 No special actions if energy rises.
 Integral accuracy reduced to 1.0D-05 until final iterations.
 Initial convergence to 1.0D-05 achieved.  Increase integral accuracy.
 SCF Done:  E(RB3LYP) =  -232.252641216     A.U. after   10 cycles
            NFock= 10  Conv=0.55D-09     -V/T= 2.0120
 DoSCS=F DFT=T ScalE2(SS,OS)=  1.000000  1.000000
 ExpMin= 1.61D-01 ExpMax= 3.05D+03 ExpMxC= 4.57D+02 IAcc=3 IRadAn=         5 AccDes= 0.00D+00
 HarFok:  IExCor=  205 AccDes= 0.00D+00 IRadAn=         5 IDoV=-2 UseB2=F ITyADJ=14
 ICtDFT= 12500011 ScaDFX=  1.000000  1.000000  1.000000  1.000000
 Range of M.O.s used for correlation:     7   120
 NBasis=   120 NAE=    21 NBE=    21 NFC=     6 NFV=     0
 NROrb=    114 NOA=    15 NOB=    15 NVA=    99 NVB=    99
 Keep R1, R2, and R3 ints in memory in canonical form, NReq=83739908.
 Orbital symmetries:
       Occupied  (A) (A) (A) (A) (A) (A) (A) (A) (A) (A) (A) (A)
                 (A) (A) (A) (A) (A) (A) (A) (A) (A)
       Virtual   (A) (A) (A) (A) (A) (A) (A) (A) (A) (A) (A) (A)
                 (A) (A) (A) (A) (A) (A) (A) (A) (A) (A) (A) (A)
                 (A) (A) (A) (A) (A) (A) (A) (A) (A) (A) (A) (A)
                 (A) (A) (A) (A) (A) (A) (A) (A) (A) (A) (A) (A)
                 (A) (A) (A) (A) (A) (A) (A) (A) (A) (A) (A) (A)
                 (A) (A) (A) (A) (A) (A) (A) (A) (A) (A) (A) (A)
                 (A) (A) (A) (A) (A) (A) (A) (A) (A) (A) (A) (A)
                 (A) (A) (A) (A) (A) (A) (A) (A) (A) (A) (A) (A)
                 (A) (A) (A)
 Generating guess from densities on rwf.
 Convergence on wavefunction:    0.000001000000000
 Iteration     1 Dimension     6 NMult     0 NNew      6
 CISAX will form     6 AO SS matrices at one time.
 Iteration     2 Dimension    12 NMult     6 NNew      6
 Iteration     3 Dimension    18 NMult    12 NNew      6
 Iteration     4 Dimension    24 NMult    18 NNew      6
 Iteration     5 Dimension    30 NMult    24 NNew      6
 Iteration     6 Dimension    36 NMult    30 NNew      6
 Iteration     7 Dimension    42 NMult    36 NNew      6
 Iteration     8 Dimension    46 NMult    42 NNew      4
 Iteration     9 Dimension    48 NMult    46 NNew      2
 Iteration    10 Dimension    50 NMult    48 NNew      2
 Iteration    11 Dimension    52 NMult    50 NNew      2
 Iteration    12 Dimension    54 NMult    52 NNew      2
 Iteration    13 Dimension    56 NMult    54 NNew      2
 Iteration    14 Dimension    58 NMult    56 NNew      2
 Iteration    15 Dimension    60 NMult    58 NNew      2
 Iteration    16 Dimension    62 NMult    60 NNew      2
 Iteration    17 Dimension    64 NMult    62 NNew      2
 Iteration    18 Dimension    66 NMult    64 NNew      2
 Iteration    19 Dimension    68 NMult    66 NNew      2
 Iteration    20 Dimension    70 NMult    68 NNew      2
 Iteration    21 Dimension    72 NMult    70 NNew      2
 Iteration    22 Dimension    74 NMult    72 NNew      2
 ***********************************************************************
 Excited states from <AA,BB:AA,BB> singles matrix:
 ***********************************************************************
 
 Ground to excited state transition densities written to RWF  633
 Ground to excited state transition electric dipole moments (Au):
       state          X           Y           Z        Dip. S.      Osc.
         1        -0.0000      0.0000      0.0000      0.0000      0.0000
         2        -0.0000      0.0000     -0.0000      0.0000      0.0000
         3        -1.6849      0.4947      0.0000      3.0836      0.5325
 Ground to excited state transition velocity dipole moments (Au):
       state          X           Y           Z        Dip. S.      Osc.
         1         0.0000      0.0000      0.0000      0.0000      0.0000
         2         0.0000     -0.0000      0.0000      0.0000      0.0000
         3         0.4345     -0.1276     -0.0000      0.2051      0.5278
 Ground to excited state transition magnetic dipole moments (Au):
       state          X           Y           Z
         1        -0.0000      0.0000     -0.0000
         2         0.0000      0.0000     -0.0000
         3         0.0000      0.0000      0.0000
 Ground to excited state transition velocity quadrupole moments (Au):
       state          XX          YY          ZZ          XY          XZ          YZ
         1         0.0000     -0.0000     -0.0000     -0.0000     -0.0000     -0.0000
         2         0.0000     -0.0000     -0.0000      0.0000     -0.0000      0.0000
         3        -0.0000     -0.0000     -0.0000      0.0000      0.0000     -0.0000
 <0|del|b> * <b|rxdel|0> + <0|del|b> * <b|delr+rdel|0>
 Rotatory Strengths (R) in cgs (10**-40 erg-esu-cm/Gauss)
       state          XX          YY          ZZ    R(velocity)    E-M Angle
         1         0.0000     -0.0000      0.0000     -0.0000       90.00
         2        -0.0000      0.0000      0.0000     -0.0000       90.00
         3         0.0000      0.0002     -0.0006     -0.0001       90.00
 1/2[<0|r|b>*<b|rxdel|0> + (<0|rxdel|b>*<b|r|0>)*]
 Rotatory Strengths (R) in cgs (10**-40 erg-esu-cm/Gauss)
       state          XX          YY          ZZ     R(length)
         1        -0.0000     -0.0000      0.0000     -0.0000
         2         0.0000     -0.0000     -0.0000     -0.0000
         3         0.0014     -0.0018     -0.0000     -0.0001
  1/2[<0|del|b>*<b|r|0> + (<0|r|b>*<b|del|0>)*] (Au)
       state          X           Y           Z        Dip. S.   Osc.(frdel)
         1        -0.0000      0.0000      0.0000      0.0000      0.0000
         2        -0.0000     -0.0000     -0.0000      0.0000      0.0000
         3        -0.7321     -0.0631     -0.0000      0.7952      0.5301

 Excitation energies and oscillator strengths:
 
 Excited State   1:      Singlet-A      5.2469 eV  236.30 nm  f=0.0000  <S**2>=0.000
      20 -> 22         0.49593
      21 -> 23        -0.49593
 This state for optimization and/or second-order correction.
 Total Energy, E(TD-HF/TD-DFT) =  -232.059821571    
 Copying the excited state density for this state as the 1-particle RhoCI density.
 
 Excited State   2:      Singlet-A      6.0256 eV  205.76 nm  f=0.0000  <S**2>=0.000
      20 -> 23        -0.49435
      21 -> 22        -0.49437
 
 Excited State   3:      Singlet-A      7.0484 eV  175.91 nm  f=0.5325  <S**2>=0.000
      20 -> 22        -0.32387
      20 -> 23         0.37873
      21 -> 22        -0.37872
      21 -> 23        -0.32387
 SavETr:  write IOETrn=   770 NScale= 10 NData=  16 NLR=1 NState=    3 LETran=      64.
          IDoAtm=111111111111
          Differentiating once with respect to electric field.
                with respect to dipole field.
          Differentiating once with respect to nuclear coordinates.
 Keep R1 ints in memory in canonical form, NReq=30156232.
          There are     1 degrees of freedom in the 1st order CPHF.  IDoFFX=0 NUNeed=     1.
 LinEq1:  Iter=  0 NonCon=     1 RMS=1.46D-03 Max=2.16D-02 NDo=     1
 AX will form     1 AO Fock derivatives at one time.
 LinEq1:  Iter=  1 NonCon=     1 RMS=4.61D-04 Max=9.74D-03 NDo=     1
 LinEq1:  Iter=  2 NonCon=     1 RMS=1.23D-04 Max=1.99D-03 NDo=     1
 LinEq1:  Iter=  3 NonCon=     1 RMS=5.24D-06 Max=6.84D-05 NDo=     1
 LinEq1:  Iter=  4 NonCon=     1 RMS=4.66D-07 Max=5.88D-06 NDo=     1
 LinEq1:  Iter=  5 NonCon=     1 RMS=1.92D-07 Max=4.60D-06 NDo=     1
 LinEq1:  Iter=  6 NonCon=     1 RMS=3.60D-08 Max=4.42D-07 NDo=     1
 LinEq1:  Iter=  7 NonCon=     1 RMS=2.88D-08 Max=6.53D-07 NDo=     1
 LinEq1:  Iter=  8 NonCon=     1 RMS=5.55D-09 Max=7.55D-08 NDo=     1
 LinEq1:  Iter=  9 NonCon=     1 RMS=1.58D-10 Max=2.09D-09 NDo=     1
 LinEq1:  Iter= 10 NonCon=     0 RMS=5.38D-11 Max=8.86D-10 NDo=     1
 Linear equations converged to 1.000D-10 1.000D-09 after    10 iterations.
 End of Minotr F.D. properties file   721 does not exist.
 End of Minotr F.D. properties file   722 does not exist.
 End of Minotr F.D. properties file   788 does not exist.
 Calling FoFJK, ICntrl=  10005127 FMM=F ISym2X=0 I1Cent= 0 IOpClX= 0 NMat=1 NMatS=1 NMatT=0.
 ***** Axes restored to original set *****
 -------------------------------------------------------------------
 Center     Atomic                   Forces (Hartrees/Bohr)
 Number     Number              X              Y              Z
 -------------------------------------------------------------------
      1        6           0.000463196   -0.000959079    0.000045446
      2        6          -0.000600664   -0.000879146    0.000037452
      3        6          -0.001062678    0.000079866   -0.000008019
      4        6          -0.000463179    0.000958407   -0.000044924
      5        6           0.000600933    0.000878638   -0.000037274
      6        6           0.001062984   -0.000079780    0.000007603
      7        1           0.000188856   -0.000390389    0.000018744
      8        1           0.000432912   -0.000030873    0.000002642
      9        1           0.000243636    0.000358417   -0.000015212
     10        1          -0.000188969    0.000390616   -0.000018096
     11        1          -0.000432952    0.000031356   -0.000003584
     12        1          -0.000244074   -0.000358032    0.000015222
 -------------------------------------------------------------------
 Cartesian Forces:  Max     0.001062984 RMS     0.000469726

 GradGradGradGradGradGradGradGradGradGradGradGradGradGradGradGradGradGrad
 Berny optimization.
 Using GEDIIS/GDIIS optimizer.
 FormGI is forming the generalized inverse of G from B-inverse, IUseBI=4.
 Internal  Forces:  Max     0.001500679 RMS     0.000520366
 Search for a local minimum.
 Step number   2 out of a maximum of   64
 All quantities printed in internal units (Hartrees-Bohrs-Radians)
 Mixed Optimization -- En-DIIS/RFO-DIIS
 Update second derivatives using D2CorX and points    1    2
 DE= -4.14D-03 DEPred=-4.61D-03 R= 8.98D-01
 TightC=F SS=  1.41D+00  RLast= 1.39D-01 DXNew= 5.0454D-01 4.1797D-01
 Trust test= 8.98D-01 RLast= 1.39D-01 DXMaxT set to 4.18D-01
 ITU=  1  0
 Use linear search instead of GDIIS.
     Eigenvalues ---    0.02101   0.02101   0.02101   0.02101   0.02101
     Eigenvalues ---    0.02101   0.02101   0.02101   0.02101   0.16000
     Eigenvalues ---    0.16000   0.16000   0.16000   0.16000   0.16000
     Eigenvalues ---    0.22000   0.22000   0.22000   0.35713   0.35713
     Eigenvalues ---    0.35713   0.35713   0.35714   0.35762   0.41723
     Eigenvalues ---    0.41723   0.45779   0.45780   0.45780   0.49313
 RFO step:  Lambda=-1.70510869D-06 EMin= 2.10135967D-02
 Quartic linear search produced a step of -0.05880.
 Iteration  1 RMS(Cart)=  0.00183389 RMS(Int)=  0.00000001
 Iteration  2 RMS(Cart)=  0.00000001 RMS(Int)=  0.00000000
 Variable       Old X    -DE/DX   Delta X   Delta X   Delta X     New X
                                 (Linear)    (Quad)   (Total)
    R1        2.70050  -0.00150  -0.00333   0.00007  -0.00327   2.69723
    R2        2.70050  -0.00150  -0.00333   0.00007  -0.00326   2.69723
    R3        2.04999  -0.00043  -0.00027  -0.00089  -0.00116   2.04883
    R4        2.70049  -0.00150  -0.00333   0.00007  -0.00326   2.69723
    R5        2.04999  -0.00043  -0.00027  -0.00089  -0.00116   2.04883
    R6        2.70049  -0.00150  -0.00333   0.00007  -0.00326   2.69723
    R7        2.04999  -0.00043  -0.00027  -0.00089  -0.00116   2.04883
    R8        2.70050  -0.00150  -0.00333   0.00007  -0.00327   2.69723
    R9        2.04999  -0.00043  -0.00027  -0.00089  -0.00116   2.04883
   R10        2.70049  -0.00150  -0.00333   0.00007  -0.00326   2.69723
   R11        2.04999  -0.00043  -0.00027  -0.00089  -0.00116   2.04883
   R12        2.04999  -0.00043  -0.00027  -0.00089  -0.00116   2.04883
    A1        2.09440   0.00000  -0.00000   0.00000   0.00000   2.09440
    A2        2.09440  -0.00000  -0.00000  -0.00000  -0.00000   2.09440
    A3        2.09439  -0.00000   0.00000  -0.00000  -0.00000   2.09439
    A4        2.09439  -0.00000  -0.00000  -0.00000  -0.00000   2.09439
    A5        2.09439  -0.00000   0.00000  -0.00000  -0.00000   2.09439
    A6        2.09440   0.00000  -0.00000   0.00001   0.00000   2.09440
    A7        2.09439   0.00000   0.00000   0.00000   0.00000   2.09440
    A8        2.09439   0.00000   0.00000   0.00000   0.00000   2.09439
    A9        2.09440  -0.00000  -0.00000  -0.00000  -0.00000   2.09440
   A10        2.09440   0.00000   0.00000   0.00000   0.00000   2.09440
   A11        2.09439  -0.00000   0.00000  -0.00000  -0.00000   2.09439
   A12        2.09440  -0.00000  -0.00000  -0.00000  -0.00000   2.09440
   A13        2.09439  -0.00000  -0.00000  -0.00000  -0.00000   2.09439
   A14        2.09439   0.00000   0.00000   0.00000   0.00000   2.09439
   A15        2.09440   0.00000  -0.00000   0.00000   0.00000   2.09440
   A16        2.09439   0.00000   0.00000   0.00000   0.00000   2.09440
   A17        2.09441  -0.00000   0.00000  -0.00001  -0.00001   2.09440
   A18        2.09438   0.00000  -0.00000   0.00000   0.00000   2.09439
    D1        0.00002  -0.00000   0.00000  -0.00001  -0.00001   0.00001
    D2       -3.14157  -0.00000   0.00000  -0.00001  -0.00001  -3.14158
    D3       -3.14158  -0.00000  -0.00000  -0.00000  -0.00000  -3.14158
    D4        0.00002  -0.00000   0.00000  -0.00000  -0.00000   0.00001
    D5       -0.00004   0.00000  -0.00000   0.00002   0.00001  -0.00002
    D6        3.14155   0.00000  -0.00000   0.00001   0.00001   3.14156
    D7        3.14156   0.00000  -0.00000   0.00001   0.00001   3.14157
    D8       -0.00004   0.00000  -0.00000   0.00001   0.00001  -0.00003
    D9        0.00002  -0.00000   0.00000  -0.00001  -0.00001   0.00001
   D10       -3.14157  -0.00000   0.00000  -0.00001  -0.00001  -3.14158
   D11       -3.14157  -0.00000   0.00000  -0.00001  -0.00001  -3.14158
   D12        0.00002  -0.00000   0.00000  -0.00001  -0.00000   0.00002
   D13       -0.00004   0.00000  -0.00000   0.00002   0.00001  -0.00002
   D14        3.14156   0.00000  -0.00000   0.00001   0.00001   3.14157
   D15        3.14155   0.00000  -0.00000   0.00001   0.00001   3.14157
   D16       -0.00004   0.00000  -0.00000   0.00001   0.00001  -0.00003
   D17        0.00001  -0.00000   0.00000  -0.00001  -0.00001   0.00001
   D18       -3.14158  -0.00000   0.00000  -0.00001  -0.00001  -3.14158
   D19       -3.14158  -0.00000  -0.00000  -0.00000  -0.00000  -3.14158
   D20        0.00001  -0.00000   0.00000  -0.00000  -0.00000   0.00001
   D21        0.00002  -0.00000   0.00000  -0.00001  -0.00001   0.00001
   D22       -3.14157  -0.00000   0.00000  -0.00001  -0.00001  -3.14157
   D23       -3.14157  -0.00000   0.00000  -0.00001  -0.00001  -3.14158
   D24        0.00002  -0.00000   0.00000  -0.00001  -0.00001   0.00002
         Item               Value     Threshold  Converged?
 Maximum Force            0.001501     0.000450     NO 
 RMS     Force            0.000520     0.000300     NO 
 Maximum Displacement     0.004420     0.001800     NO 
 RMS     Displacement     0.001834     0.001200     NO 
 Predicted change in Energy=-1.500795D-05
 GradGradGradGradGradGradGradGradGradGradGradGradGradGradGradGradGradGrad

                          Input orientation:                          
 ---------------------------------------------------------------------
 Center     Atomic      Atomic             Coordinates (Angstroms)
 Number     Number       Type             X           Y           Z
 ---------------------------------------------------------------------
      1          6           0       -1.690638    1.914151   -0.105678
      2          6           0       -0.267354    1.807490   -0.095208
      3          6           0        0.351596    0.522791   -0.034657
      4          6           0       -0.452736   -0.655244    0.015408
      5          6           0       -1.876019   -0.548583    0.004950
      6          6           0       -2.494969    0.736117   -0.055584
      7          1           0       -2.160802    2.890010   -0.151684
      8          1           0       -3.576100    0.817135   -0.063510
      9          1           0       -2.486987   -1.443426    0.042988
     10          1           0        0.017429   -1.631105    0.061379
     11          1           0        1.432727    0.441773   -0.026688
     12          1           0        0.343615    2.702332   -0.133250
 ---------------------------------------------------------------------
                    Distance matrix (angstroms):
                    1          2          3          4          5
     1  C    0.000000
     2  C    1.427313   0.000000
     3  C    2.472174   1.427311   0.000000
     4  C    2.854620   2.472177   1.427313   0.000000
     5  C    2.472178   2.854630   2.472181   1.427313   0.000000
     6  C    1.427313   2.472181   2.854624   2.472174   1.427311
     7  H    1.084192   2.181785   3.453920   3.938812   3.453919
     8  H    2.181786   3.453927   3.938816   3.453916   2.181776
     9  H    3.453925   3.938823   3.453924   2.181782   1.084192
    10  H    3.938812   3.453919   2.181779   1.084192   2.181785
    11  H    3.453917   2.181777   1.084192   2.181785   3.453926
    12  H    2.181782   1.084192   2.181784   3.453924   3.938823
                    6          7          8          9         10
     6  C    0.000000
     7  H    2.181779   0.000000
     8  H    1.084192   2.511504   0.000000
     9  H    2.181785   4.350053   2.511503   0.000000
    10  H    3.453920   5.023005   4.350050   2.511506   0.000000
    11  H    3.938816   4.350051   5.023007   4.350056   2.511503
    12  H    3.453925   2.511508   4.350057   5.023015   4.350052
                   11         12
    11  H    0.000000
    12  H    2.511503   0.000000
 Stoichiometry    C6H6
 Framework group  C1[X(C6H6)]
 Deg. of freedom    30
 Full point group                 C1      NOp   1
 Largest Abelian subgroup         C1      NOp   1
 Largest concise Abelian subgroup C1      NOp   1
                         Standard orientation:                         
 ---------------------------------------------------------------------
 Center     Atomic      Atomic             Coordinates (Angstroms)
 Number     Number       Type             X           Y           Z
 ---------------------------------------------------------------------
      1          6           0        0.353433    1.382859   -0.000007
      2          6           0        1.374313    0.385349   -0.000001
      3          6           0        1.020878   -0.997511    0.000007
      4          6           0       -0.353433   -1.382859   -0.000007
      5          6           0       -1.374313   -0.385349   -0.000001
      6          6           0       -1.020878    0.997511    0.000008
      7          1           0        0.621896    2.433288   -0.000025
      8          1           0       -1.796343    1.755221    0.000030
      9          1           0       -2.418242   -0.678066   -0.000004
     10          1           0       -0.621896   -2.433288   -0.000024
     11          1           0        1.796342   -1.755222    0.000028
     12          1           0        2.418243    0.678065   -0.000002
 ---------------------------------------------------------------------
 Rotational constants (GHZ):           5.4688370           5.4688031           2.7344100
 Standard basis: 6-31G(d,p) (6D, 7F)
 There are   120 symmetry adapted cartesian basis functions of A   symmetry.
 There are   120 symmetry adapted basis functions of A   symmetry.
   120 basis functions,   210 primitive gaussians,   120 cartesian basis functions
    21 alpha electrons       21 beta electrons
       nuclear repulsion energy       199.5502381999 Hartrees.
 NAtoms=   12 NActive=   12 NUniq=   12 SFac= 1.00D+00 NAtFMM=   60 NAOKFM=F Big=F
 Integral buffers will be    131072 words long.
 Regular integral format.
 Two-electron integral symmetry is turned on.
 One-electron integrals computed using PRISM.
 NBasis=   120 RedAO= T EigKep=  6.39D-04  NBF=   120
 NBsUse=   120 1.00D-06 EigRej= -1.00D+00 NBFU=   120
 Initial guess from the checkpoint file:  "checkpoint.chk"
 B after Tr=    -0.000000    0.000000   -0.000000
         Rot=    0.985308    0.000000   -0.000000    0.170788 Ang=  19.67 deg.
 Keep R1 ints in memory in canonical form, NReq=30147728.
 Requested convergence on RMS density matrix=1.00D-08 within 128 cycles.
 Requested convergence on MAX density matrix=1.00D-06.
 Requested convergence on             energy=1.00D-06.
 No special actions if energy rises.
 SCF Done:  E(RB3LYP) =  -232.253192755     A.U. after    6 cycles
            NFock=  6  Conv=0.50D-08     -V/T= 2.0119
 DoSCS=F DFT=T ScalE2(SS,OS)=  1.000000  1.000000
 ExpMin= 1.61D-01 ExpMax= 3.05D+03 ExpMxC= 4.57D+02 IAcc=3 IRadAn=         5 AccDes= 0.00D+00
 HarFok:  IExCor=  205 AccDes= 0.00D+00 IRadAn=         5 IDoV=-2 UseB2=F ITyADJ=14
 ICtDFT= 12500011 ScaDFX=  1.000000  1.000000  1.000000  1.000000
 Range of M.O.s used for correlation:     7   120
 NBasis=   120 NAE=    21 NBE=    21 NFC=     6 NFV=     0
 NROrb=    114 NOA=    15 NOB=    15 NVA=    99 NVB=    99
 Keep R1, R2, and R3 ints in memory in canonical form, NReq=83739908.
 Orbital symmetries:
       Occupied  (A) (A) (A) (A) (A) (A) (A) (A) (A) (A) (A) (A)
                 (A) (A) (A) (A) (A) (A) (A) (A) (A)
       Virtual   (A) (A) (A) (A) (A) (A) (A) (A) (A) (A) (A) (A)
                 (A) (A) (A) (A) (A) (A) (A) (A) (A) (A) (A) (A)
                 (A) (A) (A) (A) (A) (A) (A) (A) (A) (A) (A) (A)
                 (A) (A) (A) (A) (A) (A) (A) (A) (A) (A) (A) (A)
                 (A) (A) (A) (A) (A) (A) (A) (A) (A) (A) (A) (A)
                 (A) (A) (A) (A) (A) (A) (A) (A) (A) (A) (A) (A)
                 (A) (A) (A) (A) (A) (A) (A) (A) (A) (A) (A) (A)
                 (A) (A) (A) (A) (A) (A) (A) (A) (A) (A) (A) (A)
                 (A) (A) (A)
 Generating guess from densities on rwf.
 Convergence on wavefunction:    0.000001000000000
 Iteration     1 Dimension     6 NMult     0 NNew      6
 CISAX will form     6 AO SS matrices at one time.
 Iteration     2 Dimension    12 NMult     6 NNew      6
 Iteration     3 Dimension    18 NMult    12 NNew      6
 Iteration     4 Dimension    24 NMult    18 NNew      6
 Iteration     5 Dimension    30 NMult    24 NNew      6
 Iteration     6 Dimension    36 NMult    30 NNew      6
 Iteration     7 Dimension    42 NMult    36 NNew      6
 Iteration     8 Dimension    46 NMult    42 NNew      4
 Iteration     9 Dimension    48 NMult    46 NNew      2
 Iteration    10 Dimension    50 NMult    48 NNew      2
 Iteration    11 Dimension    52 NMult    50 NNew      2
 Iteration    12 Dimension    54 NMult    52 NNew      2
 Iteration    13 Dimension    56 NMult    54 NNew      2
 Iteration    14 Dimension    58 NMult    56 NNew      2
 Iteration    15 Dimension    60 NMult    58 NNew      2
 Iteration    16 Dimension    62 NMult    60 NNew      2
 Iteration    17 Dimension    64 NMult    62 NNew      2
 Iteration    18 Dimension    66 NMult    64 NNew      2
 Iteration    19 Dimension    68 NMult    66 NNew      2
 Iteration    20 Dimension    70 NMult    68 NNew      2
 Iteration    21 Dimension    72 NMult    70 NNew      2
 Iteration    22 Dimension    74 NMult    72 NNew      2
 Iteration    23 Dimension    76 NMult    74 NNew      2
 ***********************************************************************
 Excited states from <AA,BB:AA,BB> singles matrix:
 ***********************************************************************
 
 Ground to excited state transition densities written to RWF  633
 Ground to excited state transition electric dipole moments (Au):
       state          X           Y           Z        Dip. S.      Osc.
         1        -0.0000      0.0000      0.0000      0.0000      0.0000
         2        -0.0000      0.0000     -0.0000      0.0000      0.0000
         3        -1.2742      1.2085      0.0000      3.0841      0.5338
 Ground to excited state transition velocity dipole moments (Au):
       state          X           Y           Z        Dip. S.      Osc.
         1         0.0000      0.0000      0.0000      0.0000      0.0000
         2         0.0000     -0.0000      0.0000      0.0000      0.0000
         3         0.3294     -0.3124     -0.0000      0.2061      0.5293
 Ground to excited state transition magnetic dipole moments (Au):
       state          X           Y           Z
         1        -0.0000      0.0000     -0.0000
         2         0.0000     -0.0000     -0.0000
         3         0.0000      0.0000      0.0000
 Ground to excited state transition velocity quadrupole moments (Au):
       state          XX          YY          ZZ          XY          XZ          YZ
         1         0.0000      0.0000      0.0000      0.0000     -0.0000     -0.0000
         2         0.0000     -0.0000      0.0000     -0.0000     -0.0000      0.0000
         3         0.0000     -0.0000     -0.0000      0.0000      0.0000     -0.0000
 <0|del|b> * <b|rxdel|0> + <0|del|b> * <b|delr+rdel|0>
 Rotatory Strengths (R) in cgs (10**-40 erg-esu-cm/Gauss)
       state          XX          YY          ZZ    R(velocity)    E-M Angle
         1         0.0000     -0.0000      0.0000     -0.0000       90.00
         2        -0.0000      0.0000      0.0000      0.0000       90.00
         3         0.0002      0.0002     -0.0013     -0.0003       90.00
 1/2[<0|r|b>*<b|rxdel|0> + (<0|rxdel|b>*<b|r|0>)*]
 Rotatory Strengths (R) in cgs (10**-40 erg-esu-cm/Gauss)
       state          XX          YY          ZZ     R(length)
         1        -0.0000     -0.0000      0.0000     -0.0000
         2         0.0000      0.0000     -0.0000      0.0000
         3         0.0013     -0.0022     -0.0000     -0.0003
  1/2[<0|del|b>*<b|r|0> + (<0|r|b>*<b|del|0>)*] (Au)
       state          X           Y           Z        Dip. S.   Osc.(frdel)
         1        -0.0000      0.0000      0.0000      0.0000      0.0000
         2        -0.0000     -0.0000     -0.0000      0.0000      0.0000
         3        -0.4197     -0.3776     -0.0000      0.7973      0.5315

 Excitation energies and oscillator strengths:
 
 Excited State   1:      Singlet-A      5.2614 eV  235.65 nm  f=0.0000  <S**2>=0.000
      20 -> 22         0.49656
      21 -> 23        -0.49657
 This state for optimization and/or second-order correction.
 Total Energy, E(TD-HF/TD-DFT) =  -232.059838079    
 Copying the excited state density for this state as the 1-particle RhoCI density.
 
 Excited State   2:      Singlet-A      6.0397 eV  205.28 nm  f=0.0000  <S**2>=0.000
      20 -> 23        -0.49499
      21 -> 22        -0.49501
 
 Excited State   3:      Singlet-A      7.0646 eV  175.50 nm  f=0.5338  <S**2>=0.000
      20 -> 22        -0.26993
      20 -> 23         0.41888
      21 -> 22        -0.41886
      21 -> 23        -0.26993
 SavETr:  write IOETrn=   770 NScale= 10 NData=  16 NLR=1 NState=    3 LETran=      64.
          IDoAtm=111111111111
          Differentiating once with respect to electric field.
                with respect to dipole field.
          Differentiating once with respect to nuclear coordinates.
 Keep R1 ints in memory in canonical form, NReq=30156232.
          There are     1 degrees of freedom in the 1st order CPHF.  IDoFFX=0 NUNeed=     1.
 LinEq1:  Iter=  0 NonCon=     1 RMS=1.46D-03 Max=2.17D-02 NDo=     1
 AX will form     1 AO Fock derivatives at one time.
 LinEq1:  Iter=  1 NonCon=     1 RMS=4.61D-04 Max=9.77D-03 NDo=     1
 LinEq1:  Iter=  2 NonCon=     1 RMS=1.23D-04 Max=1.83D-03 NDo=     1
 LinEq1:  Iter=  3 NonCon=     1 RMS=5.25D-06 Max=6.86D-05 NDo=     1
 LinEq1:  Iter=  4 NonCon=     1 RMS=5.15D-07 Max=7.05D-06 NDo=     1
 LinEq1:  Iter=  5 NonCon=     1 RMS=3.37D-07 Max=7.52D-06 NDo=     1
 LinEq1:  Iter=  6 NonCon=     1 RMS=4.26D-08 Max=8.06D-07 NDo=     1
 LinEq1:  Iter=  7 NonCon=     1 RMS=4.14D-08 Max=8.75D-07 NDo=     1
 LinEq1:  Iter=  8 NonCon=     1 RMS=5.53D-09 Max=7.56D-08 NDo=     1
 LinEq1:  Iter=  9 NonCon=     1 RMS=1.33D-10 Max=2.10D-09 NDo=     1
 LinEq1:  Iter= 10 NonCon=     0 RMS=2.36D-11 Max=4.58D-10 NDo=     1
 Linear equations converged to 1.000D-10 1.000D-09 after    10 iterations.
 End of Minotr F.D. properties file   721 does not exist.
 End of Minotr F.D. properties file   722 does not exist.
 End of Minotr F.D. properties file   788 does not exist.
 Calling FoFJK, ICntrl=  10005127 FMM=F ISym2X=0 I1Cent= 0 IOpClX= 0 NMat=1 NMatS=1 NMatT=0.
 ***** Axes restored to original set *****
 -------------------------------------------------------------------
 Center     Atomic                   Forces (Hartrees/Bohr)
 Number     Number              X              Y              Z
 -------------------------------------------------------------------
      1        6           0.000007881   -0.000016048    0.000000751
      2        6          -0.000014257   -0.000012714    0.000000495
      3        6          -0.000009777   -0.000002227    0.000000139
      4        6          -0.000007917    0.000015897   -0.000000754
      5        6           0.000014296    0.000012621   -0.000000540
      6        6           0.000009839    0.000002359   -0.000000004
      7        1          -0.000005390    0.000012662   -0.000000307
      8        1          -0.000013613    0.000002021   -0.000000502
      9        1          -0.000007884   -0.000011395    0.000000525
     10        1           0.000005416   -0.000012684    0.000000861
     11        1           0.000013653   -0.000001948   -0.000000197
     12        1           0.000007753    0.000011456   -0.000000469
 -------------------------------------------------------------------
 Cartesian Forces:  Max     0.000016048 RMS     0.000008680

 GradGradGradGradGradGradGradGradGradGradGradGradGradGradGradGradGradGrad
 Berny optimization.
 Using GEDIIS/GDIIS optimizer.
 FormGI is forming the generalized inverse of G from B-inverse, IUseBI=4.
 Internal  Forces:  Max     0.000013867 RMS     0.000004826
 Search for a local minimum.
 Step number   3 out of a maximum of   64
 All quantities printed in internal units (Hartrees-Bohrs-Radians)
 Mixed Optimization -- En-DIIS/RFO-DIIS
 Swapping is turned off.
 Update second derivatives using D2CorX and points    1    2    3
 DE= -1.65D-05 DEPred=-1.50D-05 R= 1.10D+00
 TightC=F SS=  1.41D+00  RLast= 8.49D-03 DXNew= 7.0295D-01 2.5470D-02
 Trust test= 1.10D+00 RLast= 8.49D-03 DXMaxT set to 4.18D-01
 ITU=  1  1  0
     Eigenvalues ---    0.02101   0.02101   0.02101   0.02101   0.02101
     Eigenvalues ---    0.02101   0.02101   0.02101   0.02101   0.16000
     Eigenvalues ---    0.16000   0.16000   0.16000   0.16000   0.16000
     Eigenvalues ---    0.22000   0.22000   0.22000   0.35713   0.35713
     Eigenvalues ---    0.35713   0.35713   0.35714   0.36064   0.41714
     Eigenvalues ---    0.41715   0.45631   0.45779   0.45780   0.45807
 En-DIIS/RFO-DIIS/Sim-DIIS IScMMF=       -3 using points:     3    2
 RFO step:  Lambda=-3.32727292D-09.
 DidBck=F Rises=F RFO-DIIS coefs:    0.99743    0.00257
 Iteration  1 RMS(Cart)=  0.00001479 RMS(Int)=  0.00000000
 Iteration  2 RMS(Cart)=  0.00000000 RMS(Int)=  0.00000000
 Variable       Old X    -DE/DX   Delta X   Delta X   Delta X     New X
                                 (Linear)    (Quad)   (Total)
    R1        2.69723  -0.00000   0.00001  -0.00001  -0.00001   2.69722
    R2        2.69723  -0.00000   0.00001  -0.00002  -0.00001   2.69722
    R3        2.04883   0.00001   0.00000   0.00004   0.00004   2.04886
    R4        2.69723   0.00000   0.00001  -0.00001   0.00000   2.69723
    R5        2.04883   0.00001   0.00000   0.00004   0.00004   2.04886
    R6        2.69723  -0.00000   0.00001  -0.00002  -0.00001   2.69722
    R7        2.04883   0.00001   0.00000   0.00004   0.00004   2.04886
    R8        2.69723  -0.00000   0.00001  -0.00001  -0.00001   2.69723
    R9        2.04883   0.00001   0.00000   0.00004   0.00004   2.04886
   R10        2.69723   0.00000   0.00001  -0.00001   0.00000   2.69723
   R11        2.04883   0.00001   0.00000   0.00004   0.00004   2.04886
   R12        2.04883   0.00001   0.00000   0.00004   0.00004   2.04886
    A1        2.09440   0.00000  -0.00000   0.00000   0.00000   2.09440
    A2        2.09440  -0.00000   0.00000  -0.00000  -0.00000   2.09439
    A3        2.09439  -0.00000   0.00000   0.00000   0.00000   2.09439
    A4        2.09439   0.00000   0.00000   0.00001   0.00001   2.09440
    A5        2.09439  -0.00000   0.00000  -0.00001  -0.00001   2.09439
    A6        2.09440  -0.00000  -0.00000  -0.00000  -0.00000   2.09440
    A7        2.09440  -0.00000  -0.00000  -0.00002  -0.00002   2.09438
    A8        2.09439   0.00000  -0.00000   0.00001   0.00001   2.09440
    A9        2.09440   0.00000   0.00000   0.00000   0.00000   2.09440
   A10        2.09440   0.00000  -0.00000   0.00000   0.00000   2.09440
   A11        2.09439   0.00000   0.00000   0.00000   0.00000   2.09439
   A12        2.09440  -0.00000   0.00000  -0.00000  -0.00000   2.09439
   A13        2.09439   0.00000   0.00000   0.00001   0.00001   2.09440
   A14        2.09439  -0.00000  -0.00000  -0.00001  -0.00001   2.09439
   A15        2.09440  -0.00000  -0.00000  -0.00001  -0.00001   2.09440
   A16        2.09440  -0.00000  -0.00000  -0.00002  -0.00002   2.09438
   A17        2.09440   0.00000   0.00000   0.00000   0.00000   2.09440
   A18        2.09439   0.00000  -0.00000   0.00001   0.00001   2.09440
    D1        0.00001  -0.00000   0.00000  -0.00000  -0.00000   0.00001
    D2       -3.14158  -0.00000   0.00000  -0.00000  -0.00000  -3.14159
    D3       -3.14158  -0.00000   0.00000  -0.00000  -0.00000  -3.14158
    D4        0.00001  -0.00000   0.00000  -0.00000  -0.00000   0.00001
    D5       -0.00002   0.00000  -0.00000   0.00001   0.00001  -0.00001
    D6        3.14156   0.00000  -0.00000   0.00001   0.00001   3.14157
    D7        3.14157   0.00000  -0.00000   0.00001   0.00001   3.14157
    D8       -0.00003   0.00000  -0.00000   0.00001   0.00001  -0.00002
    D9        0.00001  -0.00000   0.00000  -0.00001  -0.00001   0.00001
   D10       -3.14158  -0.00000   0.00000  -0.00001  -0.00001  -3.14158
   D11       -3.14158  -0.00000   0.00000  -0.00000  -0.00000  -3.14158
   D12        0.00002  -0.00000   0.00000  -0.00001  -0.00001   0.00001
   D13       -0.00002   0.00000  -0.00000   0.00001   0.00001  -0.00001
   D14        3.14157   0.00000  -0.00000   0.00001   0.00001   3.14158
   D15        3.14157   0.00000  -0.00000   0.00001   0.00001   3.14158
   D16       -0.00003   0.00000  -0.00000   0.00001   0.00001  -0.00002
   D17        0.00001  -0.00000   0.00000  -0.00000  -0.00000   0.00000
   D18       -3.14158  -0.00000   0.00000  -0.00000  -0.00000  -3.14159
   D19       -3.14158  -0.00000   0.00000  -0.00000  -0.00000  -3.14158
   D20        0.00001  -0.00000   0.00000  -0.00000  -0.00000   0.00001
   D21        0.00001  -0.00000   0.00000  -0.00001  -0.00001   0.00001
   D22       -3.14157  -0.00000   0.00000  -0.00001  -0.00001  -3.14158
   D23       -3.14158  -0.00000   0.00000  -0.00001  -0.00001  -3.14158
   D24        0.00002  -0.00000   0.00000  -0.00001  -0.00001   0.00001
         Item               Value     Threshold  Converged?
 Maximum Force            0.000014     0.000450     YES
 RMS     Force            0.000005     0.000300     YES
 Maximum Displacement     0.000053     0.001800     YES
[...]
 ! R4    R(2,3)                  1.4273         -DE/DX =    0.0                 !
 ! R5    R(2,12)                 1.0842         -DE/DX =    0.0                 !
 ! R6    R(3,4)                  1.4273         -DE/DX =    0.0                 !
 ! R7    R(3,11)                 1.0842         -DE/DX =    0.0                 !
 ! R8    R(4,5)                  1.4273         -DE/DX =    0.0                 !
 ! R9    R(4,10)                 1.0842         -DE/DX =    0.0                 !
 ! R10   R(5,6)                  1.4273         -DE/DX =    0.0                 !
 ! R11   R(5,9)                  1.0842         -DE/DX =    0.0                 !
 ! R12   R(6,8)                  1.0842         -DE/DX =    0.0                 !
 ! A1    A(2,1,6)              120.0002         -DE/DX =    0.0                 !
 ! A2    A(2,1,7)              120.0002         -DE/DX =    0.0                 !
 ! A3    A(6,1,7)              119.9996         -DE/DX =    0.0                 !
 ! A4    A(1,2,3)              119.9997         -DE/DX =    0.0                 !
 ! A5    A(1,2,12)             119.9999         -DE/DX =    0.0                 !
 ! A6    A(3,2,12)             120.0003         -DE/DX =    0.0                 !
 ! A7    A(2,3,4)              120.0001         -DE/DX =    0.0                 !
 ! A8    A(2,3,11)             119.9997         -DE/DX =    0.0                 !
 ! A9    A(4,3,11)             120.0003         -DE/DX =    0.0                 !
 ! A10   A(3,4,5)              120.0002         -DE/DX =    0.0                 !
 ! A11   A(3,4,10)             119.9996         -DE/DX =    0.0                 !
 ! A12   A(5,4,10)             120.0002         -DE/DX =    0.0                 !
 ! A13   A(4,5,6)              119.9998         -DE/DX =    0.0                 !
 ! A14   A(4,5,9)              119.9999         -DE/DX =    0.0                 !
 ! A15   A(6,5,9)              120.0004         -DE/DX =    0.0                 !
 ! A16   A(1,6,5)              120.0001         -DE/DX =    0.0                 !
 ! A17   A(1,6,8)              120.0003         -DE/DX =    0.0                 !
 ! A18   A(5,6,8)              119.9996         -DE/DX =    0.0                 !
 ! D1    D(6,1,2,3)              0.0006         -DE/DX =    0.0                 !
 ! D2    D(6,1,2,12)          -179.9994         -DE/DX =    0.0                 !
 ! D3    D(7,1,2,3)            180.0007         -DE/DX =    0.0                 !
 ! D4    D(7,1,2,12)             0.0008         -DE/DX =    0.0                 !
 ! D5    D(2,1,6,5)             -0.0014         -DE/DX =    0.0                 !
 ! D6    D(2,1,6,8)           -180.0016         -DE/DX =    0.0                 !
 ! D7    D(7,1,6,5)           -180.0015         -DE/DX =    0.0                 !
 ! D8    D(7,1,6,8)             -0.0018         -DE/DX =    0.0                 !
 ! D9    D(1,2,3,4)              0.0008         -DE/DX =    0.0                 !
 ! D10   D(1,2,3,11)           180.001          -DE/DX =    0.0                 !
 ! D11   D(12,2,3,4)           180.0007         -DE/DX =    0.0                 !
 ! D12   D(12,2,3,11)            0.001          -DE/DX =    0.0                 !
 ! D13   D(2,3,4,5)             -0.0013         -DE/DX =    0.0                 !
 ! D14   D(2,3,4,10)           179.9986         -DE/DX =    0.0                 !
 ! D15   D(11,3,4,5)          -180.0015         -DE/DX =    0.0                 !
 ! D16   D(11,3,4,10)           -0.0017         -DE/DX =    0.0                 !
 ! D17   D(3,4,5,6)              0.0005         -DE/DX =    0.0                 !
 ! D18   D(3,4,5,9)           -179.9995         -DE/DX =    0.0                 !
 ! D19   D(10,4,5,6)          -179.9994         -DE/DX =    0.0                 !
 ! D20   D(10,4,5,9)             0.0006         -DE/DX =    0.0                 !
 ! D21   D(4,5,6,1)              0.0008         -DE/DX =    0.0                 !
 ! D22   D(4,5,6,8)            180.0011         -DE/DX =    0.0                 !
 ! D23   D(9,5,6,1)            180.0008         -DE/DX =    0.0                 !
 ! D24   D(9,5,6,8)              0.0011         -DE/DX =    0.0                 !
 --------------------------------------------------------------------------------
 GradGradGradGradGradGradGradGradGradGradGradGradGradGradGradGradGradGrad

 -------------------------------------------------------------------
 Center     Atomic                Nonadiabatic Coup. (Bohr^-1)
 Number     Number              X              Y              Z
 -------------------------------------------------------------------
      1        6          -0.445753209   -0.214390644    0.007927302
      2        6           0.408656568   -0.278422258    0.014208473
      3        6           0.037095808    0.492811765   -0.022136348
      4        6          -0.445753900   -0.214390954    0.007927612
      5        6           0.408656902   -0.278422139    0.014209168
      6        6           0.037095485    0.492811236   -0.022136018
      7        1          -0.005546445   -0.002667805    0.000099912
      8        1           0.000461624    0.006132893   -0.000276352
      9        1           0.005085152   -0.003464569    0.000174655
     10        1          -0.005546380   -0.002668023    0.000097341
     11        1           0.000461410    0.006132979   -0.000274622
     12        1           0.005085192   -0.003464297    0.000178949
 -------------------------------------------------------------------
 Cartesian Nonad. Coup.:  Max     0.492811765 RMS     0.201974501

 ----------------------------------------------------------------------

 Electric dipole moment (input orientation):
 (Debye = 10**-18 statcoulomb cm , SI units = C m)
                  (au)            (Debye)         (10**-30 SI)
   Tot        0.000000D+00      0.000000D+00      0.000000D+00
   x          0.000000D+00      0.000000D+00      0.000000D+00
   y          0.000000D+00      0.000000D+00      0.000000D+00
   z          0.000000D+00      0.000000D+00      0.000000D+00

 Dipole polarizability, Alpha (input orientation).
 (esu units = cm**3 , SI units = C**2 m**2 J**-1)
 Alpha(0;0):
               (au)            (10**-24 esu)      (10**-40 SI)
   iso        0.541495D+02      0.802412D+01      0.892804D+01
   aniso      0.481009D+02      0.712782D+01      0.793076D+01
   xx         0.701821D+02      0.103999D+02      0.115715D+02
   yx         0.859211D-02      0.127322D-02      0.141665D-02
   yy         0.700851D+02      0.103855D+02      0.115555D+02
   zx         0.190232D+00      0.281895D-01      0.313651D-01
   zy        -0.217049D+01     -0.321634D+00     -0.357866D+00
   zz         0.221811D+02      0.328690D+01      0.365717D+01

 ----------------------------------------------------------------------

 Dipole orientation:
     6         -1.85091135          0.23405823         -4.45539326
     6          0.50091874          0.88282997         -3.30515552
     6          0.87641034          0.45427382         -0.66879884
     6         -1.09991045         -0.62307862          0.81731036
     6         -3.45174819         -1.27183032         -0.33292285
     6         -3.82725136         -0.84324462         -2.96927290
     1         -2.13614311          0.55956512         -6.45798624
     1         -5.61372826         -1.33600886         -3.84298286
     1         -4.95296717         -2.09017680          0.79594367
     1         -0.81465563         -0.94864640          2.81989023
     1          2.66285794          0.94711223          0.20492925
     1          2.00214199          1.70116977         -4.43402112

 Electric dipole moment (dipole orientation):
 (Debye = 10**-18 statcoulomb cm , SI units = C m)
                  (au)            (Debye)         (10**-30 SI)
   Tot        0.000000D+00      0.000000D+00      0.000000D+00
   x          0.000000D+00      0.000000D+00      0.000000D+00
   y          0.000000D+00      0.000000D+00      0.000000D+00
   z          0.000000D+00      0.000000D+00      0.000000D+00

 Dipole polarizability, Alpha (dipole orientation).
 (esu units = cm**3 , SI units = C**2 m**2 J**-1)
 Alpha(0;0):
               (au)            (10**-24 esu)      (10**-40 SI)
   iso        0.541495D+02      0.802412D+01      0.892804D+01
   aniso      0.481009D+02      0.712782D+01      0.793076D+01
   xx         0.643003D+02      0.952832D+01      0.106017D+02
   yx         0.154009D+02      0.228218D+01      0.253927D+01
   yy         0.298629D+02      0.442522D+01      0.492373D+01
   zx         0.334138D+01      0.495141D+00      0.550919D+00
   zy        -0.874816D+01     -0.129634D+01     -0.144238D+01
   zz         0.682852D+02      0.101188D+02      0.112587D+02

 ----------------------------------------------------------------------
 1\1\GINC-DESKTOP-PRN5QE3\Freq\RB3LYP TD-FC\6-31G(d,p)\C6H6\SHOHEI\10-N
 ov-2023\0\\#N Geom=AllCheck Guess=TCheck SCRF=Check GenChk RB3LYP TD(F
 C,Read)/6-31G(d,p) Freq\\Benzeno\\0,1\C,-1.6906378672,1.9141507578,-0.
 1056775421\C,-0.2673539501,1.8074898057,-0.0952081105\C,0.3515956459,0
 .522790961,-0.0346573453\C,-0.4527355045,-0.655244325,0.0154076704\C,-
 1.8760194364,-0.5485829376,0.004949832\C,-2.4949691924,0.7361165396,-0
 .0555837913\H,-2.1608024134,2.8900102621,-0.1516840514\H,-3.5761004449
 ,0.8171352366,-0.0635095312\H,-2.4869872414,-1.4434260032,0.0429875737
 \H,0.0174291057,-1.6311054954,0.06137907\H,1.4327266611,0.4417730928,-
 0.0266883403\H,0.3436151375,2.7023318056,-0.133249734\\Version=EM64L-G
 16RevB.01\State=1-A\HF=-232.2531928\RMSD=9.317e-09\RMSF=8.678e-06\Zero
 Point=0.094455\Thermal=0.1001049\Dipole=0.0000018,-0.0000046,0.0000012
 \DipoleDeriv=-0.0191798,-0.0602365,0.0031603,-0.0602193,0.0766739,-0.0
 095328,0.0031631,-0.0095357,-0.1283369,0.0007905,0.0718181,-0.0027343,
 0.0717897,0.056749,-0.0081045,-0.0027361,-0.0081029,-0.1284267,0.10524
 13,-0.0114979,0.0014525,-0.0114879,-0.0475203,-0.0037203,0.0014571,-0.
 0037221,-0.1286048,-0.0191783,-0.0602375,0.003156,-0.0602201,0.0766782
 ,-0.0095251,0.0031517,-0.0095225,-0.1283366,0.0007908,0.0718178,-0.002
 7331,0.0717904,0.0567512,-0.0081041,-0.0027287,-0.0081054,-0.1284258,0
 .1052399,-0.011498,0.0014416,-0.0114873,-0.0475208,-0.0037192,0.001436
 1,-0.0037175,-0.1286058,0.0183247,0.0591463,-0.0031132,0.0591455,-0.07
 58009,0.0094873,-0.0031136,0.0094885,0.1283391,-0.1038766,0.0112811,-0
 .0014289,0.0112795,0.0461527,0.0037806,-0.0014269,0.0037806,0.1286022,
 -0.0012996,-0.0705106,0.0026726,-0.0705082,-0.0562566,0.008087,0.00267
 27,0.0080867,0.1284271,0.0183239,0.0591469,-0.0031111,0.0591461,-0.075
 803,0.0094826,-0.0031107,0.0094815,0.1283392,-0.1038775,0.0112807,-0.0
 014351,0.0112794,0.0461524,0.0037809,-0.001437,0.003781,0.1286019,-0.0
 012993,-0.0705106,0.0026727,-0.0705078,-0.0562558,0.0080876,0.0026724,
 0.0080877,0.1284272\Polar=70.1821316,0.0085921,70.0851301,0.1902325,-2
 .1704913,22.1810933\PG=C01 [X(C6H6)]\NImag=0\\0.64833456,-0.01826837,0
 .67645290,0.00310495,-0.02733625,0.07491533,-0.33199961,0.01638610,-0.
 00190746,0.65442240,0.01848602,-0.10034947,0.00289534,0.02199715,0.670
 40559,-0.00200247,0.00288710,-0.03808508,0.00130946,-0.02689769,0.0748
 8990,-0.01459488,0.05324982,-0.00249545,-0.14321162,0.09030813,-0.0045
 0152,0.68627902,0.01971612,0.01399387,-0.00022282,0.09240107,-0.288790
 46,0.01170830,-0.00337974,0.63874573,-0.00097847,-0.00008922,0.0073398
 4,-0.00459631,0.01169997,-0.03852881,0.00258979,-0.02556322,0.07484075
 ,-0.02908714,-0.01395692,0.00052346,0.03849522,0.01091388,-0.00036974,
 -0.17353468,-0.10995066,0.00443253,0.64833504,-0.01395696,-0.00678302,
 0.00016705,-0.02262143,-0.03895009,0.00200233,-0.10785304,-0.25858707,
 0.00954537,-0.01826821,0.67645467,0.00052299,0.00016675,-0.00187369,0.
 00114626,0.00213584,0.00723498,0.00433784,0.00953700,-0.03839254,0.003
 10215,-0.02732083,0.07491418,0.03849528,-0.02262140,0.00114648,-0.0244
 5942,0.01661851,-0.00084134,-0.02474928,-0.01386159,0.00049970,-0.3319
 9951,0.01638625,-0.00190516,0.65442196,0.01091385,-0.03895005,0.002135
 71,0.01661852,-0.01139118,0.00049684,-0.04740001,0.02411698,-0.0009467
 7,0.01848610,-0.10034981,0.00289437,0.02199648,0.67040699,-0.00037023,
 0.00200327,0.00723491,-0.00084058,0.00049631,-0.00189183,0.00201545,-0
 .00081357,0.00738239,-0.00200004,0.00288616,-0.03808515,0.00130463,-0.
 02689238,0.07488955,-0.17353448,-0.10785286,0.00434133,-0.02474931,-0.
 04739994,0.00201671,-0.00029028,-0.00268064,0.00012726,-0.01459488,0.0
 5324989,-0.00249399,-0.14321167,0.09030831,-0.00449926,0.68627917,-0.1
 0995054,-0.25858641,0.00954184,-0.01386166,0.02411705,-0.00081378,-0.0
 0268063,-0.03552252,0.00151179,0.01971607,0.01399384,-0.00022259,0.092
 40125,-0.28879091,0.01170545,-0.00338030,0.63874521,0.00443618,0.00955
 020,-0.03839282,0.00049963,-0.00094632,0.00738237,0.00012745,0.0015121
 4,-0.00191704,-0.00097828,-0.00009050,0.00733988,-0.00459392,0.0116971
 1,-0.03852852,0.00257105,-0.02556463,0.07484064,-0.11160004,0.11195489
 ,-0.00541910,-0.00827201,0.03000743,-0.00141094,-0.00541949,-0.0019193
 2,0.00006289,-0.00057435,-0.00033692,0.00001376,-0.00283199,-0.0030092
 2,0.00012256,0.01162392,-0.01792899,0.00083607,0.11507924,0.11195437,-
 0.28995782,0.01256233,-0.00206510,0.00198135,0.00014047,-0.00094475,0.
 00110226,-0.00002702,-0.00033744,-0.00003696,-0.00000876,-0.00398283,-
 0.00147738,0.00007772,0.01414462,-0.01788391,0.00110328,-0.11964796,0.
 30568517,-0.00541924,0.01256254,-0.02263658,0.00003965,0.00026736,0.00
 525611,0.00001883,-0.00003110,0.00058852,0.00001374,-0.00000850,-0.000
 20042,0.00016699,0.00008151,0.00058361,-0.00061473,0.00097613,0.005222
 84,0.00582202,-0.01377205,0.01235018,-0.01270471,0.00461774,-0.0002797
 4,0.00071654,-0.00259453,0.00011798,0.00011852,-0.00006319,0.00000411,
 0.00121202,0.00165150,-0.00007212,-0.00889843,-0.00231134,0.00004861,-
 0.34289466,0.02136955,-0.00223162,0.00076578,-0.00027804,0.00001966,0.
 36227044,-0.02745659,0.00639476,-0.00015944,-0.00161945,-0.00501874,0.
 00024714,-0.00006409,-0.00073063,0.00002373,0.00067672,-0.00551187,0.0
 0027834,0.02976285,0.00260407,0.00023794,0.02137042,-0.05919615,0.0017
 6380,0.00058288,0.00088125,-0.00008489,-0.02283815,0.05905891,0.001170
 57,-0.00003289,0.00527282,0.00007365,0.00024364,0.00057596,0.00000444,
 0.00002377,-0.00020116,-0.00002828,0.00028205,0.00057384,-0.00140195,0
 .00011123,0.00525738,-0.00223130,0.00176374,-0.02214302,-0.00001918,-0
 .00008836,-0.00104232,0.00241517,-0.00223079,0.01182641,-0.00176706,0.
 00305157,-0.00014732,-0.00046254,0.00040101,-0.00001917,-0.00484999,0.
 00281736,-0.00014890,-0.01217968,-0.02787532,0.00119115,-0.14874890,-0
 .13341673,0.00553041,0.01152315,0.01348043,-0.00058476,0.00055028,0.00
 072978,-0.00003093,0.00072361,-0.00055798,0.00003228,0.15478170,0.0040
 2545,-0.00253731,0.00015710,0.00040144,-0.00014845,-0.00000078,0.00184
 233,0.00053663,0.00000961,0.00419737,0.00587141,-0.00001064,-0.1334163
 9,-0.25298283,0.00991255,-0.01859303,-0.01778444,0.00096870,-0.0009700
 7,-0.00103899,0.00004392,0.00030306,0.00092389,-0.00008781,0.14258894,
 0.26616686,-0.00019109,0.00015318,0.00057872,-0.00001912,-0.00000090,-
 0.00020088,-0.00010466,0.00001340,0.00058601,-0.00025894,-0.00013728,0
 .00527317,0.00553032,0.00991258,-0.02247360,0.00086501,0.00109556,0.00
 522233,0.00004595,0.00005069,0.00001596,-0.00000670,-0.00009127,-0.001
 04244,-0.00588012,-0.01093993,0.01217754,-0.00057435,-0.00033692,0.000
 01375,-0.00283199,-0.00300921,0.00012248,0.01162396,-0.01792908,0.0008
 3570,-0.11160019,0.11195492,-0.00541529,-0.00827203,0.03000762,-0.0014
 1008,-0.00541951,-0.00191934,0.00006306,0.00023135,0.00012301,-0.00000
 816,-0.00053894,0.00159822,-0.00007449,0.00098623,-0.00045393,0.000028
 56,0.11507940,-0.00033744,-0.00003698,-0.00000874,-0.00398290,-0.00147
 741,0.00007738,0.01414476,-0.01788404,0.00110269,0.11195441,-0.2899585
 4,0.01255339,-0.00206512,0.00198134,0.00014039,-0.00094473,0.00110227,
 -0.00002705,0.00012301,0.00003635,0.00003895,-0.00010161,0.00004848,-0
 .00000174,0.00040594,0.00066022,-0.00007550,-0.11964808,0.30568605,0.0
 0001379,-0.00000893,-0.00020037,0.00016616,0.00008127,0.00058360,-0.00
 061409,0.00097564,0.00522297,-0.00541509,0.01255316,-0.02263588,0.0000
 3977,0.00026775,0.00525618,0.00001899,-0.00003077,0.00058847,-0.000008
 16,0.00003898,0.00088554,0.00000235,0.00000496,0.00001775,-0.00001036,
 -0.00007895,-0.00104117,0.00581765,-0.01376229,0.01234929,0.00121202,0
 .00165149,-0.00007226,-0.00889839,-0.00231139,0.00004813,-0.34289441,0
 .02136925,-0.00224357,-0.01270482,0.00461775,-0.00028029,0.00071654,-0
 .00259457,0.00011769,0.00011852,-0.00006319,0.00000413,-0.00053894,-0.
 00010160,0.00000243,-0.00002288,0.00002338,-0.00000469,-0.00074730,0.0
 0022161,-0.00001305,0.00076579,-0.00027803,0.00001984,0.36227027,0.000
 67672,-0.00551185,0.00027853,0.02976283,0.00260415,0.00023884,0.021370
 22,-0.05919625,0.00176440,-0.02745675,0.00639475,-0.00016017,-0.001619
 44,-0.00501878,0.00024694,-0.00006410,-0.00073064,0.00002374,0.0015982
 2,0.00004847,0.00000495,0.00002338,0.00029008,0.00002709,-0.00147822,0
 .00025597,-0.00001660,0.00058287,0.00088126,-0.00008481,-0.02283776,0.
 05905896,-0.00002801,0.00028252,0.00057379,-0.00140182,0.00011135,0.00
 525732,-0.00224400,0.00176446,-0.02214324,0.00117003,-0.00003253,0.005
 27292,0.00007378,0.00024275,0.00057599,0.00000395,0.00002370,-0.000201
 15,-0.00007445,-0.00000182,0.00001776,-0.00000464,0.00002710,0.0008860
 2,0.00006382,-0.00000983,0.00001875,-0.00001918,-0.00008816,-0.0010423
 3,0.00242832,-0.00223157,0.01182659,-0.01217958,-0.02787514,0.00119137
 ,-0.14874927,-0.13341707,0.00553042,0.01152313,0.01348043,-0.00058472,
 -0.00176704,0.00305157,-0.00014730,-0.00046254,0.00040100,-0.00001917,
 -0.00484998,0.00281734,-0.00014899,0.00098624,0.00040595,-0.00001025,-
 0.00074729,-0.00147822,0.00006379,0.00019050,-0.00014678,0.00000386,0.
 00055028,0.00072978,-0.00003085,0.00072360,-0.00055798,0.00003221,0.15
 478195,0.00419737,0.00587139,-0.00001066,-0.13341658,-0.25298235,0.009
 91384,-0.01859299,-0.01778449,0.00096865,0.00402543,-0.00253729,0.0001
 5728,0.00040144,-0.00014844,-0.00000078,0.00184234,0.00053662,0.000009
 54,-0.00045393,0.00066022,-0.00007883,0.00022161,0.00025596,-0.0000099
 3,-0.00014678,0.00007706,0.00003606,-0.00097007,-0.00103899,0.00004398
 ,0.00030306,0.00092388,-0.00008797,0.14258912,0.26616644,-0.00025896,-
 0.00013828,0.00527313,0.00553049,0.00991382,-0.02247362,0.00086594,0.0
 0109600,0.00522232,-0.00019152,0.00015352,0.00057872,-0.00001930,-0.00
 000072,-0.00020090,-0.00010504,0.00001356,0.00058601,0.00002860,-0.000
 07546,-0.00104118,-0.00001306,-0.00001664,0.00001876,0.00000389,0.0000
 3604,0.00088563,0.00004600,0.00005069,0.00001596,-0.00000667,-0.000091
 34,-0.00104243,-0.00588038,-0.01094119,0.01217763\\-0.00000782,0.00001
 596,-0.00000073,0.00001400,0.00001284,-0.00000052,0.00000983,0.0000024
 2,-0.00000014,0.00000794,-0.00001600,0.00000077,-0.00001447,-0.0000125
 7,0.00000051,-0.00000976,-0.00000211,0.,0.00000545,-0.00001278,0.00000
 031,0.00001366,-0.00000206,0.00000051,0.00000787,0.00001133,-0.0000005
 3,-0.00000537,0.00001260,-0.00000085,-0.00001358,0.00000191,0.00000020
 ,-0.00000775,-0.00001152,0.00000047\\\@


 OUR LITTLE SYSTEMS HAVE THEIR DAY,    
   THEY HAVE THEIR DAY AND CEASE TO BE.
   THEY ARE BUT BROKEN LIGHTS OF THEE, 
 AND THOU, OH LORD, ART MORE THAN THEY.
          -------------------          
 LET KNOWLEDGE GROW FROM MORE TO MORE, 
   BUT MORE OF REVERENCE IN US DWELL.  
   THAT MIND AND SOUL, ACCORDING WELL, 
 MAY MAKE ONE MUSIC AS BEFORE.....     
          -------------------          
                    LORD TENNYSON      
 Job cpu time:       0 days  0 hours 13 minutes 36.3 seconds.
 Elapsed time:       0 days  0 hours  3 minutes 24.5 seconds.
 File lengths (MBytes):  RWF=    126 Int=      0 D2E=      0 Chk=      4 Scr=      1
 Normal termination of Gaussian 16 at Fri Nov 10 15:55:39 2023.
