 Entering Gaussian System, Link 0=g16
 Input=./com/10.com
 Output=./log/10.log
 Initial command:
 /home/shohei/gaussian/g16/l1.exe "/home/shohei/gaussian/scratch/Gau-14575.inp" -scrdir="/home/shohei/gaussian/scratch/"
 Entering Link 1 = /home/shohei/gaussian/g16/l1.exe PID=     14577.
  
 Copyright (c) 1988-2017, Gaussian, Inc.  All Rights Reserved.
  
 This is part of the Gaussian(R) 16 program.  It is based on
 the Gaussian(R) 09 system (copyright 2009, Gaussian, Inc.),
 the Gaussian(R) 03 system (copyright 2003, Gaussian, Inc.),
 the Gaussian(R) 98 system (copyright 1998, Gaussian, Inc.),
 the Gaussian(R) 94 system (copyright 1995, Gaussian, Inc.),
 the Gaussian 92(TM) system (copyright 1992, Gaussian, Inc.),
 the Gaussian 90(TM) system (copyright 1990, Gaussian, Inc.),
 the Gaussian 88(TM) system (copyright 1988, Gaussian, Inc.),
 the Gaussian 86(TM) system (copyright 1986, Carnegie Mellon
 University), and the Gaussian 82(TM) system (copyright 1983,
 Carnegie Mellon University). Gaussian is a federally registered
 trademark of Gaussian, Inc.
  
 This software contains proprietary and confidential information,
 including trade secrets, belonging to Gaussian, Inc.
  
 This software is provided under written license and may be
 used, copied, transmitted, or stored only in accord with that
 written license.
  
 The following legend is applicable only to US Government
 contracts under FAR:
  
                    RESTRICTED RIGHTS LEGEND
  
 Use, reproduction and disclosure by the US Government is
 subject to restrictions as set forth in subparagraphs (a)
 and (c) of the Commercial Computer Software - Restricted
 Rights clause in FAR 52.227-19.
  
 Gaussian, Inc.
 340 Quinnipiac St., Bldg. 40, Wallingford CT 06492
  
  
 ---------------------------------------------------------------
 Warning -- This program may not be used in any manner that
 competes with the business of Gaussian, Inc. or will provide
 assistance to any competitor of Gaussian, Inc.  The licensee
 of this program is prohibited from giving any competitor of
 Gaussian, Inc. access to this program.  By using this program,
 the user acknowledges that Gaussian, Inc. is engaged in the
 business of creating and licensing software in the field of
 computational chemistry and represents and warrants to the
 licensee that it is not a competitor of Gaussian, Inc. and that
 it will not use this program in any manner prohibited above.
 ---------------------------------------------------------------
  

 Cite this work as:
 Gaussian 16, Revision B.01,
 M. J. Frisch, G. W. Trucks, H. B. Schlegel, G. E. Scuseria, 
 M. A. Robb, J. R. Cheeseman, G. Scalmani, V. Barone, 
 G. A. Petersson, H. Nakatsuji, X. Li, M. Caricato, A. V. Marenich, 
 J. Bloino, B. G. Janesko, R. Gomperts, B. Mennucci, H. P. Hratchian, 
 J. V. Ortiz, A. F. Izmaylov, J. L. Sonnenberg, D. Williams-Young, 
 F. Ding, F. Lipparini, F. Egidi, J. Goings, B. Peng, A. Petrone, 
 T. Henderson, D. Ranasinghe, V. G. Zakrzewski, J. Gao, N. Rega, 
 G. Zheng, W. Liang, M. Hada, M. Ehara, K. Toyota, R. Fukuda, 
 J. Hasegawa, M. Ishida, T. Nakajima, Y. Honda, O. Kitao, H. Nakai, 
 T. Vreven, K. Throssell, J. A. Montgomery, Jr., J. E. Peralta, 
 F. Ogliaro, M. J. Bearpark, J. J. Heyd, E. N. Brothers, K. N. Kudin, 
 V. N. Staroverov, T. A. Keith, R. Kobayashi, J. Normand, 
 K. Raghavachari, A. P. Rendell, J. C. Burant, S. S. Iyengar, 
 J. Tomasi, M. Cossi, J. M. Millam, M. Klene, C. Adamo, R. Cammi, 
 J. W. Ochterski, R. L. Martin, K. Morokuma, O. Farkas, 
 J. B. Foresman, and D. J. Fox, Gaussian, Inc., Wallingford CT, 2016.
 
 ******************************************
 Gaussian 16:  EM64L-G16RevB.01 20-Dec-2017
                 9-Nov-2023 
 ******************************************
 %chk=checkpoint.chk
 %nprocshared=4
 Will use up to    4 processors via shared memory.
 ---------------------------
 # B3LYP/6-31G(d,p) OPT FREQ
 ---------------------------
 1/18=20,19=15,26=3,38=1/1,3;
 2/9=110,12=2,17=6,18=5,40=1/2;
 3/5=1,6=6,7=101,11=2,25=1,30=1,71=1,74=-5/1,2,3;
 4//1;
 5/5=2,38=5/2;
 6/7=2,8=2,9=2,10=2,28=1/1;
 7//1,2,3,16;
 1/18=20,19=15,26=3/3(2);
 2/9=110/2;
 99//99;
 2/9=110/2;
 3/5=1,6=6,7=101,11=2,25=1,30=1,71=1,74=-5/1,2,3;
 4/5=5,16=3,69=1/1;
 5/5=2,38=5/2;
 7//1,2,3,16;
 1/18=20,19=15,26=3/3(-5);
 2/9=110/2;
 6/7=2,8=2,9=2,10=2,19=2,28=1/1;
 99/9=1/99;
 ------
 10poly
 ------
 Symbolic Z-matrix:
 Charge =  0 Multiplicity = 1
 C                    -2.32513   1.08483   0.01738 
 C                    -1.11447   1.64595  -0.02397 
 C                     0.11086   0.82187   0.0185 
 C                     1.32373   1.38904  -0.02315 
 C                     2.5496    0.56489   0.01939 
 C                     3.76277   1.13157  -0.0221 
 C                     4.98799   0.30652   0.02057 
 C                     6.2018    0.87187  -0.02078 
 C                     7.42575   0.04495   0.022 
 C                     8.64067   0.60789  -0.0194 
 C                     9.86263  -0.22198   0.02338 
 C                     11.07909   0.33756  -0.01836 
 C                     12.29855  -0.49606   0.02427 
 C                     13.51675   0.05957  -0.01811 
 C                     14.73362  -0.77791   0.02427 
 C                     15.9534  -0.22591  -0.01887 
 C                     17.16818  -1.06652   0.02323 
 C                     18.38903  -0.51709  -0.02053 
 C                     19.60184  -1.35967   0.02142 
 C                     20.82094  -0.81744  -0.02226 
 H                    -3.2129    1.70812  -0.01496 
 H                    -2.44322   0.00722   0.08336 
 H                    -1.03797   2.72798  -0.08995 
 H                     0.02171  -0.26017   0.08455 
 H                     1.41208   2.47112  -0.08917 
 H                     2.4608   -0.51716   0.08539 
 H                     3.85191   2.21357  -0.08808 
 H                     4.89815  -0.77545   0.08654 
 H                     6.29234   1.95374  -0.08677 
 H                     7.33398  -1.03686   0.08802 
 H                     8.73353   1.68956  -0.0855 
 H                     9.76806  -1.30353   0.0896 
 H                     11.17505   1.41894  -0.08473 
 H                     12.20065  -1.57729   0.09083 
 H                     13.61608   1.14063  -0.08486 
 H                     14.63249  -1.85882   0.09125 
 H                     16.0557   0.85485  -0.08604 
 H                     17.06478  -2.14721   0.09059 
 H                     18.49401   0.56341  -0.08801 
 H                     19.50888  -2.44034   0.08889 
 H                     20.95563   0.25809  -0.08982 
 H                     21.69893  -1.4545    0.00973 
 

 GradGradGradGradGradGradGradGradGradGradGradGradGradGradGradGradGradGrad
 Berny optimization.
 Initialization pass.
                           ----------------------------
                           !    Initial Parameters    !
                           ! (Angstroms and Degrees)  !
 --------------------------                            --------------------------
 ! Name  Definition              Value          Derivative Info.                !
 --------------------------------------------------------------------------------
 ! R1    R(1,2)                  1.335          estimate D2E/DX2                !
 ! R2    R(1,21)                 1.0852         estimate D2E/DX2                !
 ! R3    R(1,22)                 1.0861         estimate D2E/DX2                !
 ! R4    R(2,3)                  1.4773         estimate D2E/DX2                !
 ! R5    R(2,23)                 1.0867         estimate D2E/DX2                !
 ! R6    R(3,4)                  1.3396         estimate D2E/DX2                !
 ! R7    R(3,24)                 1.0877         estimate D2E/DX2                !
 ! R8    R(4,5)                  1.4778         estimate D2E/DX2                !
 ! R9    R(4,25)                 1.0877         estimate D2E/DX2                !
 ! R10   R(5,6)                  1.3396         estimate D2E/DX2                !
 ! R11   R(5,26)                 1.0877         estimate D2E/DX2                !
 ! R12   R(6,7)                  1.4777         estimate D2E/DX2                !
 ! R13   R(6,27)                 1.0877         estimate D2E/DX2                !
 ! R14   R(7,8)                  1.3397         estimate D2E/DX2                !
 ! R15   R(7,28)                 1.0877         estimate D2E/DX2                !
 ! R16   R(8,9)                  1.4777         estimate D2E/DX2                !
 ! R17   R(8,29)                 1.0877         estimate D2E/DX2                !
 ! R18   R(9,10)                 1.3396         estimate D2E/DX2                !
 ! R19   R(9,30)                 1.0877         estimate D2E/DX2                !
 ! R20   R(10,11)                1.4777         estimate D2E/DX2                !
 ! R21   R(10,31)                1.0877         estimate D2E/DX2                !
 ! R22   R(11,12)                1.3396         estimate D2E/DX2                !
 ! R23   R(11,32)                1.0877         estimate D2E/DX2                !
 ! R24   R(12,13)                1.4778         estimate D2E/DX2                !
 ! R25   R(12,33)                1.0877         estimate D2E/DX2                !
 ! R26   R(13,14)                1.3396         estimate D2E/DX2                !
 ! R27   R(13,34)                1.0877         estimate D2E/DX2                !
 ! R28   R(14,15)                1.4778         estimate D2E/DX2                !
 ! R29   R(14,35)                1.0877         estimate D2E/DX2                !
 ! R30   R(15,16)                1.3396         estimate D2E/DX2                !
 ! R31   R(15,36)                1.0877         estimate D2E/DX2                !
 ! R32   R(16,17)                1.4779         estimate D2E/DX2                !
 ! R33   R(16,37)                1.0877         estimate D2E/DX2                !
 ! R34   R(17,18)                1.3395         estimate D2E/DX2                !
 ! R35   R(17,38)                1.0877         estimate D2E/DX2                !
 ! R36   R(18,19)                1.4774         estimate D2E/DX2                !
 ! R37   R(18,39)                1.0877         estimate D2E/DX2                !
 ! R38   R(19,20)                1.335          estimate D2E/DX2                !
 ! R39   R(19,40)                1.0868         estimate D2E/DX2                !
 ! R40   R(20,41)                1.086          estimate D2E/DX2                !
 ! R41   R(20,42)                1.0852         estimate D2E/DX2                !
 ! A1    A(2,1,21)             119.9691         estimate D2E/DX2                !
 ! A2    A(2,1,22)             121.1662         estimate D2E/DX2                !
 ! A3    A(21,1,22)            118.8647         estimate D2E/DX2                !
 ! A4    A(1,2,3)              121.1203         estimate D2E/DX2                !
 ! A5    A(1,2,23)             118.9608         estimate D2E/DX2                !
 ! A6    A(3,2,23)             119.9189         estimate D2E/DX2                !
 ! A7    A(2,3,4)              120.9253         estimate D2E/DX2                !
 ! A8    A(2,3,24)             119.2541         estimate D2E/DX2                !
 ! A9    A(4,3,24)             119.8206         estimate D2E/DX2                !
 ! A10   A(3,4,5)              120.9343         estimate D2E/DX2                !
 ! A11   A(3,4,25)             119.7783         estimate D2E/DX2                !
 ! A12   A(5,4,25)             119.2874         estimate D2E/DX2                !
 ! A13   A(4,5,6)              120.959          estimate D2E/DX2                !
 ! A14   A(4,5,26)             119.2637         estimate D2E/DX2                !
 ! A15   A(6,5,26)             119.7772         estimate D2E/DX2                !
 ! A16   A(5,6,7)              120.9158         estimate D2E/DX2                !
 ! A17   A(5,6,27)             119.7954         estimate D2E/DX2                !
 ! A18   A(7,6,27)             119.2888         estimate D2E/DX2                !
 ! A19   A(6,7,8)              120.9793         estimate D2E/DX2                !
 ! A20   A(6,7,28)             119.2521         estimate D2E/DX2                !
 ! A21   A(8,7,28)             119.7686         estimate D2E/DX2                !
 ! A22   A(7,8,9)              120.8915         estimate D2E/DX2                !
 ! A23   A(7,8,29)             119.8059         estimate D2E/DX2                !
 ! A24   A(9,8,29)             119.3026         estimate D2E/DX2                !
 ! A25   A(8,9,10)             121.0044         estimate D2E/DX2                !
 ! A26   A(8,9,30)             119.238          estimate D2E/DX2                !
 ! A27   A(10,9,30)            119.7575         estimate D2E/DX2                !
 ! A28   A(9,10,11)            120.8668         estimate D2E/DX2                !
 ! A29   A(9,10,31)            119.8158         estimate D2E/DX2                !
 ! A30   A(11,10,31)           119.3174         estimate D2E/DX2                !
 ! A31   A(10,11,12)           121.0255         estimate D2E/DX2                !
 ! A32   A(10,11,32)           119.2272         estimate D2E/DX2                !
 ! A33   A(12,11,32)           119.7473         estimate D2E/DX2                !
 ! A34   A(11,12,13)           120.8512         estimate D2E/DX2                !
 ! A35   A(11,12,33)           119.821          estimate D2E/DX2                !
 ! A36   A(13,12,33)           119.3278         estimate D2E/DX2                !
 ! A37   A(12,13,14)           121.0327         estimate D2E/DX2                !
 ! A38   A(12,13,34)           119.2249         estimate D2E/DX2                !
 ! A39   A(14,13,34)           119.7424         estimate D2E/DX2                !
 ! A40   A(13,14,15)           120.8533         estimate D2E/DX2                !
 ! A41   A(13,14,35)           119.8183         estimate D2E/DX2                !
 ! A42   A(15,14,35)           119.3285         estimate D2E/DX2                !
 ! A43   A(14,15,16)           121.0206         estimate D2E/DX2                !
 ! A44   A(14,15,36)           119.2337         estimate D2E/DX2                !
 ! A45   A(16,15,36)           119.7457         estimate D2E/DX2                !
 ! A46   A(15,16,17)           120.8754         estimate D2E/DX2                !
 ! A47   A(15,16,37)           119.8078         estimate D2E/DX2                !
 ! A48   A(17,16,37)           119.3168         estimate D2E/DX2                !
 ! A49   A(16,17,18)           120.993          estimate D2E/DX2                !
 ! A50   A(16,17,38)           119.2588         estimate D2E/DX2                !
 ! A51   A(18,17,38)           119.7483         estimate D2E/DX2                !
 ! A52   A(17,18,19)           120.8875         estimate D2E/DX2                !
 ! A53   A(17,18,39)           119.8323         estimate D2E/DX2                !
 ! A54   A(19,18,39)           119.2802         estimate D2E/DX2                !
 ! A55   A(18,19,20)           121.1379         estimate D2E/DX2                !
 ! A56   A(18,19,40)           119.9122         estimate D2E/DX2                !
 ! A57   A(20,19,40)           118.9499         estimate D2E/DX2                !
 ! A58   A(19,20,41)           121.1676         estimate D2E/DX2                !
 ! A59   A(19,20,42)           119.9613         estimate D2E/DX2                !
 ! A60   A(41,20,42)           118.8712         estimate D2E/DX2                !
 ! D1    D(21,1,2,3)           179.9991         estimate D2E/DX2                !
 ! D2    D(21,1,2,23)            0.0002         estimate D2E/DX2                !
 ! D3    D(22,1,2,3)            -0.0004         estimate D2E/DX2                !
 ! D4    D(22,1,2,23)         -179.9992         estimate D2E/DX2                !
 ! D5    D(1,2,3,4)           -179.9962         estimate D2E/DX2                !
 ! D6    D(1,2,3,24)             0.0019         estimate D2E/DX2                !
 ! D7    D(23,2,3,4)             0.0027         estimate D2E/DX2                !
 ! D8    D(23,2,3,24)         -179.9992         estimate D2E/DX2                !
 ! D9    D(2,3,4,5)            179.9969         estimate D2E/DX2                !
 ! D10   D(2,3,4,25)            -0.0006         estimate D2E/DX2                !
 ! D11   D(24,3,4,5)            -0.0012         estimate D2E/DX2                !
 ! D12   D(24,3,4,25)         -179.9987         estimate D2E/DX2                !
 ! D13   D(3,4,5,6)           -179.9934         estimate D2E/DX2                !
 ! D14   D(3,4,5,26)             0.0041         estimate D2E/DX2                !
 ! D15   D(25,4,5,6)             0.0041         estimate D2E/DX2                !
 ! D16   D(25,4,5,26)         -179.9984         estimate D2E/DX2                !
 ! D17   D(4,5,6,7)            179.9967         estimate D2E/DX2                !
 ! D18   D(4,5,6,27)            -0.0014         estimate D2E/DX2                !
 ! D19   D(26,5,6,7)            -0.0009         estimate D2E/DX2                !
 ! D20   D(26,5,6,27)         -179.999          estimate D2E/DX2                !
 ! D21   D(5,6,7,8)           -179.997          estimate D2E/DX2                !
 ! D22   D(5,6,7,28)             0.0028         estimate D2E/DX2                !
 ! D23   D(27,6,7,8)             0.0011         estimate D2E/DX2                !
 ! D24   D(27,6,7,28)         -179.999          estimate D2E/DX2                !
 ! D25   D(6,7,8,9)           -179.9994         estimate D2E/DX2                !
 ! D26   D(6,7,8,29)            -0.0013         estimate D2E/DX2                !
 ! D27   D(28,7,8,9)             0.0008         estimate D2E/DX2                !
 ! D28   D(28,7,8,29)          179.9989         estimate D2E/DX2                !
 ! D29   D(7,8,9,10)           179.9909         estimate D2E/DX2                !
 ! D30   D(7,8,9,30)            -0.0038         estimate D2E/DX2                !
 ! D31   D(29,8,9,10)           -0.0072         estimate D2E/DX2                !
 ! D32   D(29,8,9,30)          179.998          estimate D2E/DX2                !
 ! D33   D(8,9,10,11)         -179.9915         estimate D2E/DX2                !
 ! D34   D(8,9,10,31)            0.0003         estimate D2E/DX2                !
 ! D35   D(30,9,10,11)           0.0032         estimate D2E/DX2                !
 ! D36   D(30,9,10,31)         179.995          estimate D2E/DX2                !
 ! D37   D(9,10,11,12)         179.973          estimate D2E/DX2                !
 ! D38   D(9,10,11,32)          -0.0149         estimate D2E/DX2                !
 ! D39   D(31,10,11,12)         -0.0187         estimate D2E/DX2                !
 ! D40   D(31,10,11,32)        179.9934         estimate D2E/DX2                !
 ! D41   D(10,11,12,13)       -179.9824         estimate D2E/DX2                !
 ! D42   D(10,11,12,33)          0.0028         estimate D2E/DX2                !
 ! D43   D(32,11,12,13)          0.0054         estimate D2E/DX2                !
 ! D44   D(32,11,12,33)        179.9906         estimate D2E/DX2                !
 ! D45   D(11,12,13,14)        179.957          estimate D2E/DX2                !
 ! D46   D(11,12,13,34)         -0.0259         estimate D2E/DX2                !
 ! D47   D(33,12,13,14)         -0.0283         estimate D2E/DX2                !
 ! D48   D(33,12,13,34)        179.9888         estimate D2E/DX2                !
 ! D49   D(12,13,14,15)       -179.9769         estimate D2E/DX2                !
 ! D50   D(12,13,14,35)          0.0052         estimate D2E/DX2                !
 ! D51   D(34,13,14,15)          0.0059         estimate D2E/DX2                !
 ! D52   D(34,13,14,35)        179.988          estimate D2E/DX2                !
 ! D53   D(13,14,15,16)        179.9517         estimate D2E/DX2                !
 ! D54   D(13,14,15,36)         -0.031          estimate D2E/DX2                !
 ! D55   D(35,14,15,16)         -0.0305         estimate D2E/DX2                !
 ! D56   D(35,14,15,36)        179.9868         estimate D2E/DX2                !
 ! D57   D(14,15,16,17)       -179.9784         estimate D2E/DX2                !
 ! D58   D(14,15,16,37)          0.006          estimate D2E/DX2                !
 ! D59   D(36,15,16,17)          0.0042         estimate D2E/DX2                !
 ! D60   D(36,15,16,37)        179.9886         estimate D2E/DX2                !
 ! D61   D(15,16,17,18)        179.9614         estimate D2E/DX2                !
 ! D62   D(15,16,17,38)         -0.0265         estimate D2E/DX2                !
 ! D63   D(37,16,17,18)         -0.023          estimate D2E/DX2                !
 ! D64   D(37,16,17,38)        179.989          estimate D2E/DX2                !
 ! D65   D(16,17,18,19)       -179.9868         estimate D2E/DX2                !
 ! D66   D(16,17,18,39)          0.0045         estimate D2E/DX2                !
 ! D67   D(38,17,18,19)          0.0011         estimate D2E/DX2                !
 ! D68   D(38,17,18,39)        179.9924         estimate D2E/DX2                !
 ! D69   D(17,18,19,20)        179.9817         estimate D2E/DX2                !
 ! D70   D(17,18,19,40)         -0.0138         estimate D2E/DX2                !
 ! D71   D(39,18,19,20)         -0.0096         estimate D2E/DX2                !
 ! D72   D(39,18,19,40)        179.9949         estimate D2E/DX2                !
 ! D73   D(18,19,20,41)          0.001          estimate D2E/DX2                !
 ! D74   D(18,19,20,42)       -179.9965         estimate D2E/DX2                !
 ! D75   D(40,19,20,41)        179.9965         estimate D2E/DX2                !
 ! D76   D(40,19,20,42)         -0.001          estimate D2E/DX2                !
 --------------------------------------------------------------------------------
 Trust Radius=3.00D-01 FncErr=1.00D-07 GrdErr=1.00D-06 EigMax=2.50D+02 EigMin=1.00D-04
 Number of steps in this run=    187 maximum allowed number of steps=    252.
 GradGradGradGradGradGradGradGradGradGradGradGradGradGradGradGradGradGrad

                          Input orientation:                          
 ---------------------------------------------------------------------
 Center     Atomic      Atomic             Coordinates (Angstroms)
 Number     Number       Type             X           Y           Z
 ---------------------------------------------------------------------
      1          6           0       -2.325128    1.084828    0.017381
      2          6           0       -1.114475    1.645948   -0.023965
      3          6           0        0.110864    0.821870    0.018503
      4          6           0        1.323731    1.389039   -0.023146
      5          6           0        2.549596    0.564891    0.019391
      6          6           0        3.762770    1.131573   -0.022098
      7          6           0        4.987990    0.306521    0.020572
      8          6           0        6.201801    0.871867   -0.020780
      9          6           0        7.425747    0.044946    0.021998
     10          6           0        8.640669    0.607890   -0.019399
     11          6           0        9.862634   -0.221983    0.023381
     12          6           0       11.079094    0.337561   -0.018361
     13          6           0       12.298553   -0.496059    0.024272
     14          6           0       13.516747    0.059569   -0.018106
     15          6           0       14.733620   -0.777914    0.024269
     16          6           0       15.953403   -0.225911   -0.018871
     17          6           0       17.168176   -1.066522    0.023233
     18          6           0       18.389028   -0.517093   -0.020532
     19          6           0       19.601839   -1.359667    0.021416
     20          6           0       20.820940   -0.817436   -0.022257
     21          1           0       -3.212904    1.708124   -0.014962
     22          1           0       -2.443216    0.007220    0.083365
     23          1           0       -1.037973    2.727977   -0.089951
     24          1           0        0.021710   -0.260170    0.084553
     25          1           0        1.412082    2.471115   -0.089173
     26          1           0        2.460796   -0.517164    0.085392
     27          1           0        3.851911    2.213565   -0.088081
     28          1           0        4.898151   -0.775450    0.086541
     29          1           0        6.292344    1.953738   -0.086766
     30          1           0        7.333980   -1.036861    0.088020
     31          1           0        8.733534    1.689556   -0.085502
     32          1           0        9.768062   -1.303534    0.089598
     33          1           0       11.175054    1.418942   -0.084731
     34          1           0       12.200646   -1.577291    0.090832
     35          1           0       13.616085    1.140626   -0.084864
     36          1           0       14.632489   -1.858823    0.091248
     37          1           0       16.055703    0.854848   -0.086039
     38          1           0       17.064776   -2.147211    0.090587
     39          1           0       18.494012    0.563408   -0.088013
     40          1           0       19.508881   -2.440345    0.088894
     41          1           0       20.955634    0.258089   -0.089822
     42          1           0       21.698929   -1.454496    0.009728
 ---------------------------------------------------------------------
                    Distance matrix (angstroms):
                    1          2          3          4          5
     1  C    0.000000
     2  C    1.335008   0.000000
     3  C    2.450144   1.477282   0.000000
     4  C    3.661743   2.451704   1.339576   0.000000
     5  C    4.902374   3.820469   2.452235   1.477760   0.000000
     6  C    6.088206   4.904295   3.665240   2.452591   1.339642
     7  C    7.354418   6.247890   4.904278   3.821066   2.452044
     8  C    8.529673   7.357113   6.091269   4.905409   3.665303
     9  C    9.806168   8.689114   7.356027   6.248457   4.903794
    10  C   10.976226   9.810220   8.532573   7.358518   6.091348
    11  C   12.257624  11.135005   9.807481   8.689673   7.355250
    12  C   13.425082  12.263565  10.978979   9.811866   8.532610
    13  C   14.708884  13.583071  12.258741  11.135643   9.806517
    14  C   15.875057  14.716973  13.427589  12.265283  10.978851
    15  C   17.160149  16.032453  14.710008  13.583926  12.257797
    16  C   18.325503  17.170217  15.877194  14.718539  13.427169
    17  C   19.611661  18.482831  17.161525  16.033664  14.709331
    18  C   20.776040  19.623083  18.327183  17.171421  15.876394
    19  C   22.062807  20.933262  19.612680  18.483685  17.160504
    20  C   23.224139  22.073303  20.774895  19.621664  18.323607
    21  H    1.085214   2.099370   3.440058   4.547850   5.874911
    22  H    1.086065   2.112463   2.681638   4.013808   5.024267
    23  H    2.090030   1.086735   2.228190   2.715670   4.190650
    24  H    2.705768   2.221706   1.087714   2.103984   2.659921
    25  H    3.987466   2.658692   2.103515   1.087683   2.222480
    26  H    5.047382   4.180140   2.705488   2.222230   1.087696
    27  H    6.280205   4.999129   3.992945   2.660029   2.103735
    28  H    7.459301   6.482827   5.047195   4.180134   2.704946
    29  H    8.661793   7.413477   6.285133   5.001004   3.993535
    30  H    9.889637   8.864897   7.458762   6.482318   5.045855
    31  H   11.075661   9.848297   8.666841   7.416156   6.286251
    32  H   12.326992  11.275724   9.888573   8.863937   7.456687
    33  H   13.504702  12.291776  11.080770   9.851561   8.668262
    34  H   14.767883  13.700178  12.325746  11.274723   9.886192
    35  H   15.941638  14.739350  13.509378  12.295018  11.081945
    36  H   17.211372  16.132686  14.767160  13.699808  12.323792
    37  H   18.382561  17.188505  15.945216  14.741788  13.509631
    38  H   19.657564  18.571116  17.212082  16.133769  14.766550
    39  H   20.825935  19.638451  18.385274  17.190242  15.944778
    40  H   22.116869  21.024589  19.670538  18.584305  17.223635
    41  H   23.295683  22.113801  20.852674  19.664564  18.408918
    42  H   24.157887  23.023146  21.707751  20.572687  19.255517
                    6          7          8          9         10
     6  C    0.000000
     7  C    1.477733   0.000000
     8  C    2.452819   1.339651   0.000000
     9  C    3.821008   2.451751   1.477725   0.000000
    10  C    4.905930   3.665309   2.453113   1.339648   0.000000
    11  C    6.248401   4.903211   3.821015   2.451463   1.477741
    12  C    7.359283   6.091307   4.906472   3.665269   2.453363
    13  C    8.689701   7.354487   6.248490   4.902747   3.821089
    14  C    9.812710   8.532420   7.359910   6.091150   4.906811
    15  C   11.135880   9.805780   8.689979   7.354054   6.248712
    16  C   12.265981  10.978403   9.813198   8.532055   7.360116
    17  C   13.584498  12.257332  11.136457   9.805626   8.690446
    18  C   14.718883  13.426387  12.266121  10.977761   9.813057
    19  C   16.033848  14.708527  13.584644  12.256841  11.136435
    20  C   17.169152  15.872852  14.716419  13.422998  12.263383
    21  H    6.999464   8.319881   9.451774  10.767935  11.904526
    22  H    6.307896   7.437496   8.688773   9.869225  11.100625
    23  H    5.059668   6.495220   7.474239   8.879512   9.908373
    24  H    3.992975   4.998916   6.283799   7.410585   8.663186
    25  H    2.706401   4.181463   5.050117   6.485586   7.465183
    26  H    2.103574   2.658829   3.991967   4.997072   6.282322
    27  H    1.087661   2.222453   2.706781   4.181785   5.051249
    28  H    2.222078   1.087697   2.103492   2.658187   3.991403
    29  H    2.660616   2.103850   1.087656   2.222593   2.707486
    30  H    4.179446   2.704237   2.221916   1.087698   2.103374
    31  H    5.002385   3.994137   2.661292   2.103950   1.087655
    32  H    6.481184   5.044416   4.178848   2.703592   2.221810
    33  H    7.418117   6.287156   5.003661   3.994567   2.661800
    34  H    8.862755   7.454937   6.480507   5.043416   4.178588
    35  H    9.853519   8.668960   7.419430   6.287465   5.004284
    36  H   11.274134   9.884841   8.862602   7.454278   6.480650
    37  H   12.296214  11.081801   9.854133   8.668550   7.419445
    38  H   13.700601  12.323736  11.275259   9.885400   8.863874
    39  H   14.742342  13.508902  12.296265  11.080948   9.853682
    40  H   16.146545  14.778573  13.713539  12.336259  11.288113
    41  H   17.215171  15.968099  14.766755  13.532028  12.320133
    42  H   18.121659  16.803475  15.670796  14.351731  13.220152
                   11         12         13         14         15
    11  C    0.000000
    12  C    1.339628   0.000000
    13  C    2.451289   1.477775   0.000000
    14  C    3.665179   2.453454   1.339596   0.000000
    15  C    4.902608   3.821212   2.451325   1.477820   0.000000
    16  C    6.090917   4.906770   3.665075   2.453322   1.339567
    17  C    7.354196   6.249009   4.902924   3.821351   2.451604
    18  C    8.531613   7.359727   6.090677   4.906289   3.664976
    19  C    9.805429   8.690187   7.354170   6.248531   4.902857
    20  C   10.974567   9.810077   8.528572   7.356656   6.087627
    21  H   13.217280  14.357564  15.667331  16.810681  18.117937
    22  H   12.308130  13.526726  14.750475  15.960371  17.194871
    23  H   11.293287  12.350810  13.721165  14.797481  16.156963
    24  H    9.841188  11.074005  12.279256  13.499215  14.721140
    25  H    8.870021   9.899908  11.284158  12.342752  13.712492
    26  H    7.407982   8.661199   9.837969  11.071468  12.275746
    27  H    6.486379   7.467022   8.871327   9.902204  11.285971
    28  H    4.995639   6.281230   7.405935   8.659585   9.835666
    29  H    4.182448   5.052691   6.487556   7.468909   8.872959
    30  H    2.657498   3.990767   4.994348   6.280130   7.404443
    31  H    2.222769   2.708145   4.183100   5.053764   6.488566
    32  H    1.087696   2.103248   2.657003   3.990275   4.993727
    33  H    2.103989   1.087658   2.222917   2.708479   4.183473
    34  H    2.703277   2.221815   1.087694   2.103165   2.656952
    35  H    3.994598   2.661891   2.103934   1.087661   2.222968
    36  H    5.043349   4.178844   2.703493   2.221952   1.087694
    37  H    6.286942   5.003880   3.994158   2.661462   2.103802
    38  H    7.455325   6.481848   5.044560   4.179737   2.704378
    39  H    8.667753   7.418685   6.286398   5.003190   3.994033
    40  H    9.898257   8.876350   7.468150   6.493588   5.056775
    41  H   11.103960   9.877118   8.690616   7.441880   6.308706
    42  H   11.900300  10.770012   9.449121   8.321133   6.998107
                   16         17         18         19         20
    16  C    0.000000
    17  C    1.477861   0.000000
    18  C    2.452970   1.339502   0.000000
    19  C    3.820747   2.451255   1.477363   0.000000
    20  C    4.903349   3.661529   2.450389   1.334964   0.000000
    21  H   19.263640  20.569117  21.716241  23.020104  24.166179
    22  H   18.398380  19.640856  20.839100  22.087477  23.279007
    23  H   17.246372  18.597712  19.696286  21.040985  22.144675
    24  H   15.932065  17.165525  18.369415  19.611076  20.806968
    25  H   14.789487  16.148747  17.238063  18.589093  19.685599
    26  H   13.496153  14.717768  15.928585  17.161855  18.362915
    27  H   12.345118  13.714747  14.791512  16.150548  17.237727
    28  H   11.069404  12.273641  13.493776  14.715434  15.923216
    29  H    9.904118  11.287950  12.346626  13.716159  14.790662
    30  H    8.658147   9.834454  11.067792  12.272286  13.489196
    31  H    7.469938   8.874175   9.904650  11.288457  12.344813
    32  H    6.279449   7.404206   8.657464   9.834174  11.064128
    33  H    5.053958   6.488967   7.469523   8.873705   9.901939
    34  H    3.990170   4.994178   6.279530   7.404718   8.654458
    35  H    2.708290   4.183364   5.053035   6.487836   7.466449
    36  H    2.103175   2.657457   3.990529   4.994845   6.276488
    37  H    1.087665   2.222880   2.707567   4.182189   5.050553
    38  H    2.222280   1.087712   2.103159   2.657386   3.986202
    39  H    2.661297   2.104017   1.087685   2.222042   2.706593
    40  H    4.190078   2.714885   2.228215   1.086765   2.089901
    41  H    5.026092   4.014002   2.682009   2.112409   1.086030
    42  H    5.875483   4.547353   3.440215   2.099265   1.085234
                   21         22         23         24         25
    21  H    0.000000
    22  H    1.869535   0.000000
    23  H    2.403342   3.067126   0.000000
    24  H    3.787719   2.479387   3.175279   0.000000
    25  H    4.688087   4.578632   2.463483   3.069729   0.000000
    26  H    6.095314   4.931968   4.775255   2.452587   3.171764
    27  H    7.083250   6.672779   4.916868   4.562851   2.453385
    28  H    8.483375   7.382970   6.895123   4.903590   4.766942
    29  H    9.508692   8.951417   7.371092   6.652186   4.907610
    30  H   10.898730   9.832786   9.181246   7.353404   6.885214
    31  H   11.946661  11.303915   9.826529   8.928954   7.363050
    32  H   13.326158  12.281426  11.534977   9.802041   9.170733
    33  H   14.391034  13.692279  12.282981  11.280299   9.819507
    34  H   15.760160  14.729338  13.922249  12.249951  11.524543
    35  H   16.838700  16.100126  14.739780  13.667405  12.276315
    36  H   18.198694  17.177365  16.328960  14.697979  13.912587
    37  H   19.287622  18.519103  17.195999  16.073621  14.732548
    38  H   20.641198  19.626598  18.748588  17.147217  16.320787
    39  H   21.737202  20.945315  19.651560  18.491457  17.188127
    40  H   23.097621  22.088122  21.187655  19.608748  18.752287
    41  H   24.212113  23.400835  22.131856  20.941064  19.668449
    42  H   25.111794  24.186467  23.118601  21.710224  20.663406
                   26         27         28         29         30
    26  H    0.000000
    27  H    3.069556   0.000000
    28  H    2.451003   3.171644   0.000000
    29  H    4.562428   2.454225   3.069573   0.000000
    30  H    4.900818   4.766664   2.449817   3.171631   0.000000
    31  H    6.651771   4.909667   4.562457   2.455444   3.069562
    32  H    7.349458   6.884940   4.898460   4.766712   2.448647
    33  H    8.928368   7.366129   6.651632   4.911912   4.562309
    34  H    9.797376   9.170821   7.346386   6.885328   4.896581
    35  H   11.279084   9.822947   8.927659   7.368741   6.651028
    36  H   12.245416  11.525509   9.794440   9.171987   7.344649
    37  H   13.665040  12.279196  11.277350   9.825007   8.926215
    38  H   14.694670  13.915031  12.243713  11.527989   9.793940
    39  H   16.070524  14.734794  13.662740  12.280625  11.275556
    40  H   17.156219  16.334959  14.705282  13.928951  12.255528
    41  H   18.511908  17.215145  16.091677  14.761006  13.684223
    42  H   19.261103  18.220326  16.814670  15.779361  14.371231
                   31         32         33         34         35
    31  H    0.000000
    32  H    3.171671   0.000000
    33  H    2.456472   3.069511   0.000000
    34  H    4.766996   2.447939   3.171762   0.000000
    35  H    4.913312   4.561977   2.456846   3.069432   0.000000
    36  H    6.886212   4.896019   4.767449   2.448086   3.171874
    37  H    7.369593   6.650105   4.913139   4.561585   2.456300
    38  H    9.173952   7.345327   6.887453   4.897405   4.768032
    39  H    9.825231   8.925202   7.368792   6.649891   4.911962
    40  H   11.540997   9.806931   9.185690   7.359020   6.897723
    41  H   12.305643  11.297461   9.849230   8.947127   7.392420
    42  H   13.341499  11.932089  10.909514   9.499423   8.489756
                   36         37         38         39         40
    36  H    0.000000
    37  H    3.069362   0.000000
    38  H    2.449324   3.172031   0.000000
    39  H    4.561874   2.455665   3.069539   0.000000
    40  H    4.910944   4.776330   2.461621   3.175497   0.000000
    41  H    6.670552   4.936137   4.577859   2.480484   3.067015
    42  H    7.078467   6.098215   4.686338   3.788532   2.403014
                   41         42
    41  H    0.000000
    42  H    1.869584   0.000000
 Stoichiometry    C20H22
 Framework group  C1[X(C20H22)]
 Deg. of freedom   120
 Full point group                 C1      NOp   1
 Largest Abelian subgroup         C1      NOp   1
 Largest concise Abelian subgroup C1      NOp   1
                         Standard orientation:                         
 ---------------------------------------------------------------------
 Center     Atomic      Atomic             Coordinates (Angstroms)
 Number     Number       Type             X           Y           Z
 ---------------------------------------------------------------------
      1          6           0       11.606383   -0.316177    0.003370
      2          6           0       10.462024    0.371346    0.002588
      3          6           0        9.156242   -0.319520    0.002213
      4          6           0        8.010322    0.374259    0.001351
      5          6           0        6.704009   -0.316626    0.000907
      6          6           0        5.557733    0.376694   -0.000086
      7          6           0        4.251966   -0.315164   -0.000604
      8          6           0        3.104914    0.376888   -0.001657
      9          6           0        1.800216   -0.316967   -0.002160
     10          6           0        0.651805    0.372822   -0.003030
     11          6           0       -0.651236   -0.324171   -0.003342
     12          6           0       -1.801536    0.362425   -0.003671
     13          6           0       -3.102483   -0.338544   -0.003593
     14          6           0       -4.254924    0.344390   -0.003060
     15          6           0       -5.553708   -0.360671   -0.002473
     16          6           0       -6.708112    0.318879   -0.000970
     17          6           0       -8.005141   -0.389492    0.000092
     18          6           0       -9.160881    0.287654    0.002367
     19          6           0      -10.456166   -0.422863    0.003717
     20          6           0      -11.610928    0.246949    0.006349
     21          1           0       12.555223    0.210504    0.003619
     22          1           0       11.609587   -1.402237    0.003758
     23          1           0       10.500639    1.457394    0.002207
     24          1           0        9.130205   -1.406922    0.002613
     25          1           0        8.037160    1.461611    0.000930
     26          1           0        6.677620   -1.404002    0.001356
     27          1           0        5.583777    1.464043   -0.000552
     28          1           0        4.226618   -1.402566   -0.000122
     29          1           0        3.129552    1.464265   -0.002121
     30          1           0        1.776803   -1.404412   -0.001728
     31          1           0        0.674112    1.460248   -0.003380
     32          1           0       -0.671833   -1.411672   -0.003101
     33          1           0       -1.782338    1.449913   -0.003758
     34          1           0       -3.119730   -1.426101   -0.003692
     35          1           0       -4.239118    1.431936   -0.002763
     36          1           0       -5.567715   -1.448275   -0.002989
     37          1           0       -6.695285    1.406468   -0.000265
     38          1           0       -8.016868   -1.477141   -0.000797
     39          1           0       -9.150749    1.375291    0.003384
     40          1           0      -10.478275   -1.509403    0.002635
     41          1           0      -11.630866    1.332795    0.007558
     42          1           0      -12.551494   -0.294407    0.007358
 ---------------------------------------------------------------------
 Rotational constants (GHZ):           7.2283412           0.0379670           0.0377686
 Standard basis: 6-31G(d,p) (6D, 7F)
 There are   410 symmetry adapted cartesian basis functions of A   symmetry.
 There are   410 symmetry adapted basis functions of A   symmetry.
   410 basis functions,   714 primitive gaussians,   410 cartesian basis functions
    71 alpha electrons       71 beta electrons
       nuclear repulsion energy      1084.8369505041 Hartrees.
 NAtoms=   42 NActive=   42 NUniq=   42 SFac= 1.00D+00 NAtFMM=   60 NAOKFM=F Big=F
 Integral buffers will be    131072 words long.
 Raffenetti 2 integral format.
 Two-electron integral symmetry is turned on.
 One-electron integrals computed using PRISM.
 NBasis=   410 RedAO= T EigKep=  1.18D-03  NBF=   410
 NBsUse=   410 1.00D-06 EigRej= -1.00D+00 NBFU=   410
 ExpMin= 1.61D-01 ExpMax= 3.05D+03 ExpMxC= 4.57D+02 IAcc=3 IRadAn=         5 AccDes= 0.00D+00
 Harris functional with IExCor=  402 and IRadAn=       5 diagonalized for initial guess.
 HarFok:  IExCor=  402 AccDes= 0.00D+00 IRadAn=         5 IDoV= 1 UseB2=F ITyADJ=14
 ICtDFT=  3500011 ScaDFX=  1.000000  1.000000  1.000000  1.000000
 FoFCou: FMM=F IPFlag=           0 FMFlag=      100000 FMFlg1=           0
         NFxFlg=           0 DoJE=T BraDBF=F KetDBF=T FulRan=T
         wScrn=  0.000000 ICntrl=       500 IOpCl=  0 I1Cent=   200000004 NGrid=           0
         NMat0=    1 NMatS0=      1 NMatT0=    0 NMatD0=    1 NMtDS0=    0 NMtDT0=    0
 Petite list used in FoFCou.
 Requested convergence on RMS density matrix=1.00D-08 within 128 cycles.
 Requested convergence on MAX density matrix=1.00D-06.
 Requested convergence on             energy=1.00D-06.
 No special actions if energy rises.
 Integral accuracy reduced to 1.0D-05 until final iterations.
 Initial convergence to 1.0D-05 achieved.  Increase integral accuracy.
 SCF Done:  E(RB3LYP) =  -775.264495978     A.U. after   13 cycles
            NFock= 13  Conv=0.62D-08     -V/T= 2.0100

 **********************************************************************

            Population analysis using the SCF Density.

 **********************************************************************

 Orbital symmetries:
       Occupied  (A) (A) (A) (A) (A) (A) (A) (A) (A) (A) (A) (A)
                 (A) (A) (A) (A) (A) (A) (A) (A) (A) (A) (A) (A)
                 (A) (A) (A) (A) (A) (A) (A) (A) (A) (A) (A) (A)
                 (A) (A) (A) (A) (A) (A) (A) (A) (A) (A) (A) (A)
                 (A) (A) (A) (A) (A) (A) (A) (A) (A) (A) (A) (A)
                 (A) (A) (A) (A) (A) (A) (A) (A) (A) (A) (A)
       Virtual   (A) (A) (A) (A) (A) (A) (A) (A) (A) (A) (A) (A)
                 (A) (A) (A) (A) (A) (A) (A) (A) (A) (A) (A) (A)
                 (A) (A) (A) (A) (A) (A) (A) (A) (A) (A) (A) (A)
                 (A) (A) (A) (A) (A) (A) (A) (A) (A) (A) (A) (A)
                 (A) (A) (A) (A) (A) (A) (A) (A) (A) (A) (A) (A)
                 (A) (A) (A) (A) (A) (A) (A) (A) (A) (A) (A) (A)
                 (A) (A) (A) (A) (A) (A) (A) (A) (A) (A) (A) (A)
                 (A) (A) (A) (A) (A) (A) (A) (A) (A) (A) (A) (A)
                 (A) (A) (A) (A) (A) (A) (A) (A) (A) (A) (A) (A)
                 (A) (A) (A) (A) (A) (A) (A) (A) (A) (A) (A) (A)
                 (A) (A) (A) (A) (A) (A) (A) (A) (A) (A) (A) (A)
                 (A) (A) (A) (A) (A) (A) (A) (A) (A) (A) (A) (A)
                 (A) (A) (A) (A) (A) (A) (A) (A) (A) (A) (A) (A)
                 (A) (A) (A) (A) (A) (A) (A) (A) (A) (A) (A) (A)
                 (A) (A) (A) (A) (A) (A) (A) (A) (A) (A) (A) (A)
                 (A) (A) (A) (A) (A) (A) (A) (A) (A) (A) (A) (A)
                 (A) (A) (A) (A) (A) (A) (A) (A) (A) (A) (A) (A)
                 (A) (A) (A) (A) (A) (A) (A) (A) (A) (A) (A) (A)
                 (A) (A) (A) (A) (A) (A) (A) (A) (A) (A) (A) (A)
                 (A) (A) (A) (A) (A) (A) (A) (A) (A) (A) (A) (A)
                 (A) (A) (A) (A) (A) (A) (A) (A) (A) (A) (A) (A)
                 (A) (A) (A) (A) (A) (A) (A) (A) (A) (A) (A) (A)
                 (A) (A) (A) (A) (A) (A) (A) (A) (A) (A) (A) (A)
                 (A) (A) (A) (A) (A) (A) (A) (A) (A) (A) (A) (A)
                 (A) (A) (A) (A) (A) (A) (A) (A) (A) (A) (A) (A)
                 (A) (A) (A) (A) (A) (A) (A) (A) (A) (A) (A) (A)
                 (A) (A) (A) (A) (A) (A) (A) (A) (A) (A) (A) (A)
                 (A) (A) (A) (A) (A) (A) (A) (A) (A) (A) (A) (A)
                 (A) (A) (A)
 The electronic state is 1-A.
 Alpha  occ. eigenvalues --  -10.19145 -10.19133 -10.19121 -10.19114 -10.19110
 Alpha  occ. eigenvalues --  -10.19104 -10.19098 -10.19094 -10.19089 -10.19082
 Alpha  occ. eigenvalues --  -10.19031 -10.19023 -10.19016 -10.19011 -10.19006
 Alpha  occ. eigenvalues --  -10.19000 -10.18947 -10.18931 -10.17926 -10.17911
 Alpha  occ. eigenvalues --   -0.82868  -0.82388  -0.81600  -0.80520  -0.79157
 Alpha  occ. eigenvalues --   -0.77527  -0.75654  -0.73584  -0.71436  -0.69560
 Alpha  occ. eigenvalues --   -0.63238  -0.61005  -0.58309  -0.57002  -0.56585
 Alpha  occ. eigenvalues --   -0.56010  -0.55682  -0.55159  -0.54341  -0.54213
 Alpha  occ. eigenvalues --   -0.48451  -0.48206  -0.47325  -0.46354  -0.45593
 Alpha  occ. eigenvalues --   -0.44677  -0.43200  -0.41873  -0.40618  -0.40394
 Alpha  occ. eigenvalues --   -0.38997  -0.38705  -0.37876  -0.37702  -0.37393
 Alpha  occ. eigenvalues --   -0.37096  -0.36504  -0.35916  -0.35196  -0.35073
 Alpha  occ. eigenvalues --   -0.34581  -0.33951  -0.33566  -0.33021  -0.32167
 Alpha  occ. eigenvalues --   -0.30394  -0.28260  -0.25794  -0.23052  -0.20183
 Alpha  occ. eigenvalues --   -0.17634
 Alpha virt. eigenvalues --   -0.06951  -0.04229  -0.01002   0.02166   0.04973
 Alpha virt. eigenvalues --    0.07211   0.08327   0.08755   0.09027   0.09605
 Alpha virt. eigenvalues --    0.09914   0.09942   0.10118   0.11537   0.12590
 Alpha virt. eigenvalues --    0.12635   0.13260   0.13894   0.14048   0.14556
 Alpha virt. eigenvalues --    0.14622   0.15197   0.15236   0.15534   0.15826
 Alpha virt. eigenvalues --    0.16857   0.17375   0.19141   0.19815   0.19866
 Alpha virt. eigenvalues --    0.20727   0.21069   0.25548   0.28092   0.30646
 Alpha virt. eigenvalues --    0.30979   0.31540   0.32144   0.33956   0.34740
 Alpha virt. eigenvalues --    0.34969   0.36341   0.36783   0.37032   0.37881
 Alpha virt. eigenvalues --    0.39334   0.41131   0.41717   0.42231   0.42803
 Alpha virt. eigenvalues --    0.43828   0.47186   0.48801   0.51703   0.52106
 Alpha virt. eigenvalues --    0.52672   0.52797   0.53770   0.53791   0.55084
 Alpha virt. eigenvalues --    0.56629   0.56839   0.56978   0.57121   0.58249
 Alpha virt. eigenvalues --    0.58739   0.58882   0.59006   0.59113   0.59314
 Alpha virt. eigenvalues --    0.60185   0.60246   0.60414   0.61212   0.61735
 Alpha virt. eigenvalues --    0.62102   0.63033   0.63184   0.64000   0.65165
 Alpha virt. eigenvalues --    0.65470   0.65924   0.66071   0.66561   0.68184
 Alpha virt. eigenvalues --    0.69378   0.69669   0.69908   0.70021   0.72979
 Alpha virt. eigenvalues --    0.73403   0.75851   0.76015   0.78642   0.79049
 Alpha virt. eigenvalues --    0.79951   0.81334   0.82836   0.83569   0.84124
 Alpha virt. eigenvalues --    0.84538   0.84855   0.85342   0.85599   0.85925
 Alpha virt. eigenvalues --    0.86474   0.86876   0.87274   0.87435   0.87725
 Alpha virt. eigenvalues --    0.87919   0.89016   0.89836   0.91144   0.91530
 Alpha virt. eigenvalues --    0.91713   0.92340   0.93599   0.93721   0.95982
 Alpha virt. eigenvalues --    0.97832   0.98968   1.02828   1.02927   1.04245
 Alpha virt. eigenvalues --    1.04441   1.04738   1.06183   1.06468   1.07199
 Alpha virt. eigenvalues --    1.08695   1.10091   1.10340   1.10579   1.14388
 Alpha virt. eigenvalues --    1.15154   1.16701   1.20109   1.21566   1.24566
 Alpha virt. eigenvalues --    1.27915   1.28403   1.29604   1.29613   1.30487
 Alpha virt. eigenvalues --    1.30559   1.30573   1.31226   1.31400   1.31981
 Alpha virt. eigenvalues --    1.32264   1.33164   1.33184   1.33476   1.34144
 Alpha virt. eigenvalues --    1.34757   1.36029   1.36132   1.37167   1.38560
 Alpha virt. eigenvalues --    1.40110   1.41797   1.43615   1.44236   1.45520
 Alpha virt. eigenvalues --    1.47415   1.49163   1.50090   1.50604   1.50616
 Alpha virt. eigenvalues --    1.51584   1.52043   1.53340   1.53669   1.76332
 Alpha virt. eigenvalues --    1.76468   1.76613   1.76697   1.76700   1.77304
 Alpha virt. eigenvalues --    1.77363   1.78271   1.78389   1.82636   1.84681
 Alpha virt. eigenvalues --    1.86246   1.86265   1.87826   1.91712   1.91733
 Alpha virt. eigenvalues --    1.92274   1.92400   1.93633   1.93765   1.94243
 Alpha virt. eigenvalues --    1.95327   1.96009   1.96056   1.97042   1.97960
 Alpha virt. eigenvalues --    1.98571   2.00270   2.03162   2.04117   2.04214
 Alpha virt. eigenvalues --    2.06627   2.07654   2.08934   2.09198   2.10391
 Alpha virt. eigenvalues --    2.11007   2.12092   2.14081   2.16166   2.17496
 Alpha virt. eigenvalues --    2.17578   2.18198   2.18286   2.20030   2.20381
 Alpha virt. eigenvalues --    2.21969   2.22638   2.23511   2.23772   2.24998
 Alpha virt. eigenvalues --    2.25472   2.27468   2.30070   2.32503   2.32783
 Alpha virt. eigenvalues --    2.35440   2.37475   2.40860   2.41591   2.41605
 Alpha virt. eigenvalues --    2.44658   2.45173   2.46689   2.47831   2.47874
 Alpha virt. eigenvalues --    2.48256   2.49312   2.49376   2.49703   2.50894
 Alpha virt. eigenvalues --    2.51414   2.51430   2.52238   2.53008   2.53446
 Alpha virt. eigenvalues --    2.54937   2.55203   2.55816   2.56745   2.57669
 Alpha virt. eigenvalues --    2.58690   2.58811   2.60260   2.62496   2.63763
 Alpha virt. eigenvalues --    2.63825   2.63847   2.64208   2.65759   2.66479
 Alpha virt. eigenvalues --    2.68463   2.68934   2.69967   2.70186   2.70412
 Alpha virt. eigenvalues --    2.70640   2.70848   2.71302   2.72182   2.73978
 Alpha virt. eigenvalues --    2.76450   2.77969   2.81229   2.82241   2.82798
 Alpha virt. eigenvalues --    2.86727   2.86952   2.87869   2.90030   2.91165
 Alpha virt. eigenvalues --    2.91948   2.92425   2.92514   2.92828   2.94852
 Alpha virt. eigenvalues --    2.95143   2.97270   2.97332   2.99011   2.99150
 Alpha virt. eigenvalues --    2.99994   3.00140   3.28028   3.28041   3.35250
 Alpha virt. eigenvalues --    3.35690   3.36511   3.37760   3.39336   3.41120
 Alpha virt. eigenvalues --    3.43249   3.45972   3.49394   3.52143   3.53216
 Alpha virt. eigenvalues --    3.55888   3.59514   3.60532   3.63251   3.64749
 Alpha virt. eigenvalues --    3.66739   3.67552   3.70996   3.71120   4.13712
 Alpha virt. eigenvalues --    4.13797   4.13943   4.14126   4.14480   4.15147
 Alpha virt. eigenvalues --    4.16248   4.17899   4.20196   4.24771   4.26768
 Alpha virt. eigenvalues --    4.31759   4.37231   4.43337   4.49871   4.56512
 Alpha virt. eigenvalues --    4.62832   4.68368   4.72682   4.75423
          Condensed to atoms (all electrons):
               1          2          3          4          5          6
     1  C    4.965646   0.618709  -0.031467   0.002705  -0.000276   0.000005
     2  C    0.618709   4.739973   0.421045  -0.019987   0.004043  -0.000268
     3  C   -0.031467   0.421045   4.861559   0.577769  -0.018383   0.002517
     4  C    0.002705  -0.019987   0.577769   4.868543   0.393014  -0.016608
     5  C   -0.000276   0.004043  -0.018383   0.393014   4.887648   0.563563
     6  C    0.000005  -0.000268   0.002517  -0.016608   0.563563   4.880963
     7  C   -0.000000   0.000002  -0.000255   0.003645  -0.017247   0.396234
     8  C   -0.000000  -0.000000   0.000004  -0.000256   0.002552  -0.017437
     9  C    0.000000   0.000000  -0.000000   0.000002  -0.000256   0.003673
    10  C    0.000000   0.000000  -0.000000  -0.000000   0.000004  -0.000256
    11  C   -0.000000   0.000000   0.000000   0.000000  -0.000000   0.000002
    12  C    0.000000  -0.000000   0.000000   0.000000  -0.000000  -0.000000
    13  C    0.000000   0.000000  -0.000000   0.000000   0.000000   0.000000
    14  C    0.000000   0.000000   0.000000  -0.000000   0.000000   0.000000
    15  C    0.000000   0.000000   0.000000   0.000000  -0.000000   0.000000
    16  C    0.000000   0.000000   0.000000   0.000000   0.000000  -0.000000
    17  C    0.000000   0.000000   0.000000   0.000000   0.000000   0.000000
    18  C    0.000000   0.000000   0.000000   0.000000   0.000000   0.000000
    19  C    0.000000   0.000000   0.000000   0.000000   0.000000   0.000000
    20  C    0.000000   0.000000   0.000000   0.000000   0.000000   0.000000
    21  H    0.369490  -0.020435   0.004035  -0.000224   0.000003  -0.000000
    22  H    0.382756  -0.035907  -0.012743   0.000562  -0.000000  -0.000000
    23  H   -0.050997   0.381940  -0.047475  -0.005759   0.000269  -0.000005
    24  H   -0.005169  -0.046707   0.379518  -0.051037  -0.009572   0.000550
    25  H    0.000486  -0.009063  -0.053592   0.381315  -0.048012  -0.005256
    26  H   -0.000003   0.000238  -0.005242  -0.048047   0.381118  -0.052710
    27  H    0.000000  -0.000004   0.000531  -0.009214  -0.052933   0.380874
    28  H    0.000000  -0.000000  -0.000004   0.000250  -0.005294  -0.047948
    29  H    0.000000   0.000000  -0.000000  -0.000004   0.000538  -0.009274
    30  H   -0.000000  -0.000000   0.000000  -0.000000  -0.000004   0.000252
    31  H    0.000000  -0.000000   0.000000   0.000000  -0.000000  -0.000004
    32  H   -0.000000   0.000000   0.000000  -0.000000   0.000000  -0.000000
    33  H    0.000000  -0.000000   0.000000  -0.000000   0.000000   0.000000
    34  H    0.000000   0.000000  -0.000000   0.000000   0.000000  -0.000000
    35  H    0.000000   0.000000   0.000000  -0.000000   0.000000  -0.000000
    36  H    0.000000   0.000000   0.000000   0.000000  -0.000000   0.000000
    37  H    0.000000   0.000000   0.000000   0.000000   0.000000  -0.000000
    38  H    0.000000   0.000000   0.000000   0.000000   0.000000   0.000000
    39  H    0.000000   0.000000   0.000000   0.000000   0.000000   0.000000
    40  H    0.000000   0.000000   0.000000   0.000000   0.000000   0.000000
    41  H    0.000000   0.000000   0.000000   0.000000   0.000000   0.000000
    42  H    0.000000   0.000000   0.000000   0.000000   0.000000   0.000000
               7          8          9         10         11         12
     1  C   -0.000000  -0.000000   0.000000   0.000000  -0.000000   0.000000
     2  C    0.000002  -0.000000   0.000000   0.000000   0.000000  -0.000000
     3  C   -0.000255   0.000004  -0.000000  -0.000000   0.000000   0.000000
     4  C    0.003645  -0.000256   0.000002  -0.000000   0.000000   0.000000
     5  C   -0.017247   0.002552  -0.000256   0.000004  -0.000000  -0.000000
     6  C    0.396234  -0.017437   0.003673  -0.000256   0.000002  -0.000000
     7  C    4.881947   0.564205  -0.017397   0.002569  -0.000255   0.000004
     8  C    0.564205   4.880949   0.397380  -0.017592   0.003671  -0.000256
     9  C   -0.017397   0.397380   4.881035   0.563970  -0.017351   0.002574
    10  C    0.002569  -0.017592   0.563970   4.881337   0.397629  -0.017688
    11  C   -0.000255   0.003671  -0.017351   0.397629   4.880596   0.563977
    12  C    0.000004  -0.000256   0.002574  -0.017688   0.563977   4.881769
    13  C   -0.000000   0.000002  -0.000255   0.003672  -0.017266   0.397377
    14  C   -0.000000  -0.000000   0.000004  -0.000256   0.002565  -0.017697
    15  C    0.000000   0.000000  -0.000000   0.000002  -0.000256   0.003676
    16  C    0.000000   0.000000  -0.000000  -0.000000   0.000004  -0.000256
    17  C   -0.000000   0.000000   0.000000   0.000000  -0.000000   0.000002
    18  C    0.000000  -0.000000   0.000000   0.000000  -0.000000  -0.000000
    19  C    0.000000   0.000000  -0.000000   0.000000   0.000000   0.000000
    20  C    0.000000   0.000000   0.000000  -0.000000   0.000000   0.000000
    21  H    0.000000  -0.000000   0.000000   0.000000   0.000000   0.000000
    22  H    0.000000   0.000000  -0.000000   0.000000  -0.000000   0.000000
    23  H   -0.000000   0.000000  -0.000000   0.000000   0.000000  -0.000000
    24  H   -0.000004  -0.000000   0.000000   0.000000  -0.000000   0.000000
    25  H    0.000251  -0.000004  -0.000000   0.000000  -0.000000   0.000000
    26  H   -0.009303   0.000543  -0.000004  -0.000000   0.000000   0.000000
    27  H   -0.047883  -0.005281   0.000249  -0.000004  -0.000000   0.000000
    28  H    0.380917  -0.052781  -0.009317   0.000543  -0.000004  -0.000000
    29  H   -0.052754   0.380777  -0.047857  -0.005281   0.000248  -0.000004
    30  H   -0.005306  -0.047962   0.380873  -0.052823  -0.009332   0.000545
    31  H    0.000538  -0.009272  -0.052719   0.380771  -0.047839  -0.005277
    32  H   -0.000004   0.000253  -0.005312  -0.047977   0.380857  -0.052852
    33  H   -0.000000  -0.000004   0.000537  -0.009267  -0.052693   0.380785
    34  H    0.000000  -0.000000  -0.000004   0.000253  -0.005311  -0.047982
    35  H    0.000000   0.000000  -0.000000  -0.000004   0.000537  -0.009266
    36  H    0.000000  -0.000000   0.000000  -0.000000  -0.000004   0.000253
    37  H    0.000000  -0.000000   0.000000   0.000000  -0.000000  -0.000004
    38  H   -0.000000   0.000000   0.000000  -0.000000   0.000000  -0.000000
    39  H    0.000000  -0.000000   0.000000  -0.000000   0.000000   0.000000
    40  H    0.000000   0.000000  -0.000000   0.000000   0.000000  -0.000000
    41  H    0.000000   0.000000   0.000000  -0.000000   0.000000  -0.000000
    42  H    0.000000   0.000000   0.000000   0.000000   0.000000   0.000000
              13         14         15         16         17         18
     1  C    0.000000   0.000000   0.000000   0.000000   0.000000   0.000000
     2  C    0.000000   0.000000   0.000000   0.000000   0.000000   0.000000
     3  C   -0.000000   0.000000   0.000000   0.000000   0.000000   0.000000
     4  C    0.000000  -0.000000   0.000000   0.000000   0.000000   0.000000
     5  C    0.000000   0.000000  -0.000000   0.000000   0.000000   0.000000
     6  C    0.000000   0.000000   0.000000  -0.000000   0.000000   0.000000
     7  C   -0.000000  -0.000000   0.000000   0.000000  -0.000000   0.000000
     8  C    0.000002  -0.000000   0.000000   0.000000   0.000000  -0.000000
     9  C   -0.000255   0.000004  -0.000000  -0.000000   0.000000   0.000000
    10  C    0.003672  -0.000256   0.000002  -0.000000   0.000000   0.000000
    11  C   -0.017266   0.002565  -0.000256   0.000004  -0.000000  -0.000000
    12  C    0.397377  -0.017697   0.003676  -0.000256   0.000002  -0.000000
    13  C    4.880305   0.564227  -0.017165   0.002545  -0.000256   0.000004
    14  C    0.564227   4.882570   0.396231  -0.017472   0.003651  -0.000255
    15  C   -0.017165   0.396231   4.880498   0.563593  -0.016423   0.002508
    16  C    0.002545  -0.017472   0.563593   4.888097   0.392999  -0.018512
    17  C   -0.000256   0.003651  -0.016423   0.392999   4.868303   0.577805
    18  C    0.000004  -0.000255   0.002508  -0.018512   0.577805   4.861780
    19  C   -0.000000   0.000002  -0.000268   0.004049  -0.019892   0.421040
    20  C   -0.000000  -0.000000   0.000005  -0.000276   0.002693  -0.031505
    21  H    0.000000   0.000000   0.000000   0.000000   0.000000   0.000000
    22  H    0.000000   0.000000   0.000000   0.000000   0.000000   0.000000
    23  H    0.000000   0.000000   0.000000   0.000000   0.000000   0.000000
    24  H   -0.000000   0.000000   0.000000   0.000000   0.000000   0.000000
    25  H    0.000000  -0.000000   0.000000   0.000000   0.000000   0.000000
    26  H   -0.000000   0.000000  -0.000000   0.000000   0.000000   0.000000
    27  H   -0.000000   0.000000   0.000000  -0.000000   0.000000   0.000000
    28  H    0.000000   0.000000  -0.000000   0.000000  -0.000000   0.000000
    29  H   -0.000000   0.000000  -0.000000   0.000000   0.000000  -0.000000
    30  H   -0.000004  -0.000000   0.000000   0.000000  -0.000000   0.000000
    31  H    0.000247  -0.000004  -0.000000   0.000000  -0.000000   0.000000
    32  H   -0.009342   0.000546  -0.000004  -0.000000   0.000000   0.000000
    33  H   -0.047833  -0.005272   0.000246  -0.000004  -0.000000   0.000000
    34  H    0.380847  -0.052871  -0.009340   0.000546  -0.000004  -0.000000
    35  H   -0.052672   0.380840  -0.047846  -0.005265   0.000245  -0.000004
    36  H   -0.005303  -0.047978   0.380917  -0.053018  -0.009265   0.000536
    37  H    0.000539  -0.009271  -0.052637   0.381065  -0.047985  -0.005222
    38  H   -0.000004   0.000254  -0.005268  -0.048066   0.381329  -0.053640
    39  H   -0.000000  -0.000004   0.000548  -0.009559  -0.051005   0.379493
    40  H    0.000000  -0.000000  -0.000005   0.000269  -0.005764  -0.047489
    41  H    0.000000   0.000000  -0.000000  -0.000000   0.000563  -0.012741
    42  H   -0.000000   0.000000  -0.000000   0.000003  -0.000224   0.004039
              19         20         21         22         23         24
     1  C    0.000000   0.000000   0.369490   0.382756  -0.050997  -0.005169
     2  C    0.000000   0.000000  -0.020435  -0.035907   0.381940  -0.046707
     3  C    0.000000   0.000000   0.004035  -0.012743  -0.047475   0.379518
     4  C    0.000000   0.000000  -0.000224   0.000562  -0.005759  -0.051037
     5  C    0.000000   0.000000   0.000003  -0.000000   0.000269  -0.009572
     6  C    0.000000   0.000000  -0.000000  -0.000000  -0.000005   0.000550
     7  C    0.000000   0.000000   0.000000   0.000000  -0.000000  -0.000004
     8  C    0.000000   0.000000  -0.000000   0.000000   0.000000  -0.000000
     9  C   -0.000000   0.000000   0.000000  -0.000000  -0.000000   0.000000
    10  C    0.000000  -0.000000   0.000000   0.000000   0.000000   0.000000
    11  C    0.000000   0.000000   0.000000  -0.000000   0.000000  -0.000000
    12  C    0.000000   0.000000   0.000000   0.000000  -0.000000   0.000000
    13  C   -0.000000  -0.000000   0.000000   0.000000   0.000000  -0.000000
    14  C    0.000002  -0.000000   0.000000   0.000000   0.000000   0.000000
    15  C   -0.000268   0.000005   0.000000   0.000000   0.000000   0.000000
    16  C    0.004049  -0.000276   0.000000   0.000000   0.000000   0.000000
    17  C   -0.019892   0.002693   0.000000   0.000000   0.000000   0.000000
    18  C    0.421040  -0.031505   0.000000   0.000000   0.000000   0.000000
    19  C    4.739866   0.618740   0.000000   0.000000   0.000000   0.000000
    20  C    0.618740   4.965759   0.000000   0.000000   0.000000   0.000000
    21  H    0.000000   0.000000   0.602179  -0.042396  -0.008100   0.000025
    22  H    0.000000   0.000000  -0.042396   0.601579   0.005981   0.004587
    23  H    0.000000   0.000000  -0.008100   0.005981   0.631848   0.004340
    24  H    0.000000   0.000000   0.000025   0.004587   0.004340   0.631685
    25  H    0.000000   0.000000  -0.000008   0.000014   0.004188   0.006060
    26  H    0.000000   0.000000   0.000000   0.000001   0.000005   0.004057
    27  H    0.000000   0.000000  -0.000000  -0.000000   0.000001   0.000014
    28  H    0.000000   0.000000   0.000000  -0.000000  -0.000000   0.000001
    29  H    0.000000   0.000000  -0.000000   0.000000  -0.000000  -0.000000
    30  H   -0.000000   0.000000   0.000000   0.000000   0.000000  -0.000000
    31  H    0.000000  -0.000000  -0.000000   0.000000   0.000000   0.000000
    32  H   -0.000000   0.000000   0.000000   0.000000   0.000000   0.000000
    33  H   -0.000000  -0.000000   0.000000   0.000000   0.000000   0.000000
    34  H    0.000000   0.000000   0.000000   0.000000   0.000000   0.000000
    35  H   -0.000000   0.000000   0.000000   0.000000   0.000000   0.000000
    36  H   -0.000004   0.000000   0.000000   0.000000   0.000000   0.000000
    37  H    0.000236  -0.000003   0.000000   0.000000   0.000000   0.000000
    38  H   -0.009094   0.000489   0.000000   0.000000   0.000000   0.000000
    39  H   -0.046688  -0.005157   0.000000   0.000000   0.000000   0.000000
    40  H    0.381934  -0.051012   0.000000   0.000000   0.000000   0.000000
    41  H   -0.035896   0.382751   0.000000   0.000000   0.000000   0.000000
    42  H   -0.020425   0.369475   0.000000   0.000000   0.000000   0.000000
              25         26         27         28         29         30
     1  C    0.000486  -0.000003   0.000000   0.000000   0.000000  -0.000000
     2  C   -0.009063   0.000238  -0.000004  -0.000000   0.000000  -0.000000
     3  C   -0.053592  -0.005242   0.000531  -0.000004  -0.000000   0.000000
     4  C    0.381315  -0.048047  -0.009214   0.000250  -0.000004  -0.000000
     5  C   -0.048012   0.381118  -0.052933  -0.005294   0.000538  -0.000004
     6  C   -0.005256  -0.052710   0.380874  -0.047948  -0.009274   0.000252
     7  C    0.000251  -0.009303  -0.047883   0.380917  -0.052754  -0.005306
     8  C   -0.000004   0.000543  -0.005281  -0.052781   0.380777  -0.047962
     9  C   -0.000000  -0.000004   0.000249  -0.009317  -0.047857   0.380873
    10  C    0.000000  -0.000000  -0.000004   0.000543  -0.005281  -0.052823
    11  C   -0.000000   0.000000  -0.000000  -0.000004   0.000248  -0.009332
    12  C    0.000000   0.000000   0.000000  -0.000000  -0.000004   0.000545
    13  C    0.000000  -0.000000  -0.000000   0.000000  -0.000000  -0.000004
    14  C   -0.000000   0.000000   0.000000   0.000000   0.000000  -0.000000
    15  C    0.000000  -0.000000   0.000000  -0.000000  -0.000000   0.000000
    16  C    0.000000   0.000000  -0.000000   0.000000   0.000000   0.000000
    17  C    0.000000   0.000000   0.000000  -0.000000   0.000000  -0.000000
    18  C    0.000000   0.000000   0.000000   0.000000  -0.000000   0.000000
    19  C    0.000000   0.000000   0.000000   0.000000   0.000000  -0.000000
    20  C    0.000000   0.000000   0.000000   0.000000   0.000000   0.000000
    21  H   -0.000008   0.000000  -0.000000   0.000000  -0.000000   0.000000
    22  H    0.000014   0.000001  -0.000000  -0.000000   0.000000   0.000000
    23  H    0.004188   0.000005   0.000001  -0.000000  -0.000000   0.000000
    24  H    0.006060   0.004057   0.000014   0.000001  -0.000000  -0.000000
    25  H    0.634258   0.004272   0.004064   0.000005   0.000001  -0.000000
    26  H    0.004272   0.634320   0.006067   0.004061   0.000014   0.000001
    27  H    0.004064   0.006067   0.634894   0.004275   0.004050   0.000005
    28  H    0.000005   0.004061   0.004275   0.634920   0.006073   0.004070
    29  H    0.000001   0.000014   0.004050   0.006073   0.634993   0.004276
    30  H   -0.000000   0.000001   0.000005   0.004070   0.004276   0.635161
    31  H   -0.000000  -0.000000   0.000001   0.000014   0.004043   0.006076
    32  H    0.000000  -0.000000  -0.000000   0.000001   0.000005   0.004078
    33  H    0.000000   0.000000  -0.000000  -0.000000   0.000001   0.000014
    34  H    0.000000   0.000000   0.000000  -0.000000  -0.000000   0.000001
    35  H    0.000000   0.000000   0.000000   0.000000  -0.000000  -0.000000
    36  H    0.000000   0.000000   0.000000   0.000000   0.000000  -0.000000
    37  H    0.000000   0.000000   0.000000   0.000000   0.000000   0.000000
    38  H    0.000000   0.000000   0.000000   0.000000   0.000000   0.000000
    39  H    0.000000   0.000000   0.000000   0.000000   0.000000   0.000000
    40  H    0.000000   0.000000   0.000000   0.000000   0.000000   0.000000
    41  H    0.000000   0.000000   0.000000   0.000000   0.000000   0.000000
    42  H    0.000000   0.000000   0.000000   0.000000   0.000000   0.000000
              31         32         33         34         35         36
     1  C    0.000000  -0.000000   0.000000   0.000000   0.000000   0.000000
     2  C   -0.000000   0.000000  -0.000000   0.000000   0.000000   0.000000
     3  C    0.000000   0.000000   0.000000  -0.000000   0.000000   0.000000
     4  C    0.000000  -0.000000  -0.000000   0.000000  -0.000000   0.000000
     5  C   -0.000000   0.000000   0.000000   0.000000   0.000000  -0.000000
     6  C   -0.000004  -0.000000   0.000000  -0.000000  -0.000000   0.000000
     7  C    0.000538  -0.000004  -0.000000   0.000000   0.000000   0.000000
     8  C   -0.009272   0.000253  -0.000004  -0.000000   0.000000  -0.000000
     9  C   -0.052719  -0.005312   0.000537  -0.000004  -0.000000   0.000000
    10  C    0.380771  -0.047977  -0.009267   0.000253  -0.000004  -0.000000
    11  C   -0.047839   0.380857  -0.052693  -0.005311   0.000537  -0.000004
    12  C   -0.005277  -0.052852   0.380785  -0.047982  -0.009266   0.000253
    13  C    0.000247  -0.009342  -0.047833   0.380847  -0.052672  -0.005303
    14  C   -0.000004   0.000546  -0.005272  -0.052871   0.380840  -0.047978
    15  C   -0.000000  -0.000004   0.000246  -0.009340  -0.047846   0.380917
    16  C    0.000000  -0.000000  -0.000004   0.000546  -0.005265  -0.053018
    17  C   -0.000000   0.000000  -0.000000  -0.000004   0.000245  -0.009265
    18  C    0.000000   0.000000   0.000000  -0.000000  -0.000004   0.000536
    19  C    0.000000  -0.000000  -0.000000   0.000000  -0.000000  -0.000004
    20  C   -0.000000   0.000000  -0.000000   0.000000   0.000000   0.000000
    21  H   -0.000000   0.000000   0.000000   0.000000   0.000000   0.000000
    22  H    0.000000   0.000000   0.000000   0.000000   0.000000   0.000000
    23  H    0.000000   0.000000   0.000000   0.000000   0.000000   0.000000
    24  H    0.000000   0.000000   0.000000   0.000000   0.000000   0.000000
    25  H   -0.000000   0.000000   0.000000   0.000000   0.000000   0.000000
    26  H   -0.000000  -0.000000   0.000000   0.000000   0.000000   0.000000
    27  H    0.000001  -0.000000  -0.000000   0.000000   0.000000   0.000000
    28  H    0.000014   0.000001  -0.000000  -0.000000   0.000000   0.000000
    29  H    0.004043   0.000005   0.000001  -0.000000  -0.000000   0.000000
    30  H    0.006076   0.004078   0.000014   0.000001  -0.000000  -0.000000
    31  H    0.634985   0.004276   0.004037   0.000005   0.000001  -0.000000
    32  H    0.004276   0.635270   0.006077   0.004082   0.000014   0.000001
    33  H    0.004037   0.006077   0.634919   0.004274   0.004033   0.000005
    34  H    0.000005   0.004082   0.004274   0.635278   0.006077   0.004083
    35  H    0.000001   0.000014   0.004033   0.006077   0.634755   0.004272
    36  H   -0.000000   0.000001   0.000005   0.004083   0.004272   0.635140
    37  H   -0.000000  -0.000000   0.000001   0.000014   0.004033   0.006072
    38  H    0.000000  -0.000000  -0.000000   0.000001   0.000005   0.004086
    39  H    0.000000   0.000000  -0.000000  -0.000000   0.000001   0.000014
    40  H    0.000000   0.000000   0.000000  -0.000000  -0.000000   0.000001
    41  H    0.000000   0.000000   0.000000   0.000000  -0.000000  -0.000000
    42  H    0.000000  -0.000000   0.000000  -0.000000   0.000000  -0.000000
              37         38         39         40         41         42
     1  C    0.000000   0.000000   0.000000   0.000000   0.000000   0.000000
     2  C    0.000000   0.000000   0.000000   0.000000   0.000000   0.000000
     3  C    0.000000   0.000000   0.000000   0.000000   0.000000   0.000000
     4  C    0.000000   0.000000   0.000000   0.000000   0.000000   0.000000
     5  C    0.000000   0.000000   0.000000   0.000000   0.000000   0.000000
     6  C   -0.000000   0.000000   0.000000   0.000000   0.000000   0.000000
     7  C    0.000000  -0.000000   0.000000   0.000000   0.000000   0.000000
     8  C   -0.000000   0.000000  -0.000000   0.000000   0.000000   0.000000
     9  C    0.000000   0.000000   0.000000  -0.000000   0.000000   0.000000
    10  C    0.000000  -0.000000  -0.000000   0.000000  -0.000000   0.000000
    11  C   -0.000000   0.000000   0.000000   0.000000   0.000000   0.000000
    12  C   -0.000004  -0.000000   0.000000  -0.000000  -0.000000   0.000000
    13  C    0.000539  -0.000004  -0.000000   0.000000   0.000000  -0.000000
    14  C   -0.009271   0.000254  -0.000004  -0.000000   0.000000   0.000000
    15  C   -0.052637  -0.005268   0.000548  -0.000005  -0.000000  -0.000000
    16  C    0.381065  -0.048066  -0.009559   0.000269  -0.000000   0.000003
    17  C   -0.047985   0.381329  -0.051005  -0.005764   0.000563  -0.000224
    18  C   -0.005222  -0.053640   0.379493  -0.047489  -0.012741   0.004039
    19  C    0.000236  -0.009094  -0.046688   0.381934  -0.035896  -0.020425
    20  C   -0.000003   0.000489  -0.005157  -0.051012   0.382751   0.369475
    21  H    0.000000   0.000000   0.000000   0.000000   0.000000   0.000000
    22  H    0.000000   0.000000   0.000000   0.000000   0.000000   0.000000
    23  H    0.000000   0.000000   0.000000   0.000000   0.000000   0.000000
    24  H    0.000000   0.000000   0.000000   0.000000   0.000000   0.000000
    25  H    0.000000   0.000000   0.000000   0.000000   0.000000   0.000000
    26  H    0.000000   0.000000   0.000000   0.000000   0.000000   0.000000
    27  H    0.000000   0.000000   0.000000   0.000000   0.000000   0.000000
    28  H    0.000000   0.000000   0.000000   0.000000   0.000000   0.000000
    29  H    0.000000   0.000000   0.000000   0.000000   0.000000   0.000000
    30  H    0.000000   0.000000   0.000000   0.000000   0.000000   0.000000
    31  H   -0.000000   0.000000   0.000000   0.000000   0.000000   0.000000
    32  H   -0.000000  -0.000000   0.000000   0.000000   0.000000  -0.000000
    33  H    0.000001  -0.000000  -0.000000   0.000000   0.000000   0.000000
    34  H    0.000014   0.000001  -0.000000  -0.000000   0.000000  -0.000000
    35  H    0.004033   0.000005   0.000001  -0.000000  -0.000000   0.000000
    36  H    0.006072   0.004086   0.000014   0.000001  -0.000000  -0.000000
    37  H    0.634249   0.004269   0.004040   0.000005   0.000001   0.000000
    38  H    0.004269   0.634436   0.006065   0.004201   0.000014  -0.000008
    39  H    0.004040   0.006065   0.631703   0.004337   0.004578   0.000025
    40  H    0.000005   0.004201   0.004337   0.631954   0.005984  -0.008112
    41  H    0.000001   0.000014   0.004578   0.005984   0.601643  -0.042405
    42  H    0.000000  -0.000008   0.000025  -0.008112  -0.042405   0.602278
 Mulliken charges:
               1
     1  C   -0.251885
     2  C   -0.033582
     3  C   -0.077819
     4  C   -0.076669
     5  C   -0.080775
     6  C   -0.078866
     7  C   -0.079904
     8  C   -0.079491
     9  C   -0.079825
    10  C   -0.079603
    11  C   -0.079775
    12  C   -0.079682
    13  C   -0.079664
    14  C   -0.079811
    15  C   -0.079014
    16  C   -0.080742
    17  C   -0.076773
    18  C   -0.077839
    19  C   -0.033600
    20  C   -0.251959
    21  H    0.095431
    22  H    0.095566
    23  H    0.083764
    24  H    0.081652
    25  H    0.081021
    26  H    0.080612
    27  H    0.080296
    28  H    0.080218
    29  H    0.080156
    30  H    0.080081
    31  H    0.080122
    32  H    0.080033
    33  H    0.080143
    34  H    0.080051
    35  H    0.080242
    36  H    0.080192
    37  H    0.080599
    38  H    0.080932
    39  H    0.081608
    40  H    0.083696
    41  H    0.095509
    42  H    0.095355
 Sum of Mulliken charges =  -0.00000
 Mulliken charges with hydrogens summed into heavy atoms:
               1
     1  C   -0.060888
     2  C    0.050182
     3  C    0.003833
     4  C    0.004352
     5  C   -0.000163
     6  C    0.001430
     7  C    0.000313
     8  C    0.000665
     9  C    0.000257
    10  C    0.000519
    11  C    0.000258
    12  C    0.000461
    13  C    0.000388
    14  C    0.000431
    15  C    0.001178
    16  C   -0.000144
    17  C    0.004159
    18  C    0.003770
    19  C    0.050096
    20  C   -0.061096
 Electronic spatial extent (au):  <R**2>=          26557.4328
 Charge=             -0.0000 electrons
 Dipole moment (field-independent basis, Debye):
    X=              0.0304    Y=              0.0040    Z=              0.0006  Tot=              0.0307
 Quadrupole moment (field-independent basis, Debye-Ang):
   XX=           -116.5654   YY=           -105.2321   ZZ=           -130.9007
   XY=              1.4774   XZ=             -0.0068   YZ=              0.0014
 Traceless Quadrupole moment (field-independent basis, Debye-Ang):
   XX=              1.0007   YY=             12.3339   ZZ=            -13.3346
   XY=              1.4774   XZ=             -0.0068   YZ=              0.0014
 Octapole moment (field-independent basis, Debye-Ang**2):
  XXX=              3.2392  YYY=              0.0565  ZZZ=             -0.0038  XYY=             -0.0915
  XXY=              0.6896  XXZ=              0.2041  XZZ=              0.0242  YZZ=              0.0113
  YYZ=             -0.0009  XYZ=             -0.0854
 Hexadecapole moment (field-independent basis, Debye-Ang**3):
 XXXX=         -35287.8689 YYYY=           -338.6461 ZZZZ=           -135.7332 XXXY=            243.1120
 XXXZ=             -1.5603 YYYX=             -0.2130 YYYZ=              0.0033 ZZZX=              0.0101
 ZZZY=              0.0014 XXYY=          -5523.0193 XXZZ=          -6804.6110 YYZZ=            -88.9461
 XXYZ=              0.2987 YYXZ=              0.0014 ZZXY=              0.9307
 N-N= 1.084836950504D+03 E-N=-3.962857990223D+03  KE= 7.675852413744D+02
 Calling FoFJK, ICntrl=      2127 FMM=F ISym2X=0 I1Cent= 0 IOpClX= 0 NMat=1 NMatS=1 NMatT=0.
 ***** Axes restored to original set *****
 -------------------------------------------------------------------
 Center     Atomic                   Forces (Hartrees/Bohr)
 Number     Number              X              Y              Z
 -------------------------------------------------------------------
      1        6          -0.008409485    0.004008312   -0.000191640
      2        6           0.010890641   -0.022407827    0.001290747
      3        6          -0.021390817    0.023641108   -0.001301953
      4        6           0.024855461   -0.025664887    0.001404212
      5        6          -0.026938782    0.024847227   -0.001342781
      6        6           0.027717632   -0.025491079    0.001378169
      7        6          -0.028402256    0.025213276   -0.001357433
      8        6           0.028618580   -0.025442901    0.001370622
      9        6          -0.028836337    0.025379080   -0.001363811
[...]
 7,-0.00000031,0.00000003,0.00000013,-0.00000578,0.00000038,0.,-0.00000
 065,0.00000007,0.00000025,-0.00000686,0.00000046,0.00000013,-0.0000008
 9,0.00000011,0.00000038,-0.00000820,0.00000056,0.00000058,-0.00000084,
 0.00000015,0.00000028,-0.00000972,0.00000065,0.00000257,0.00000042,0.0
 0000019,-0.00000224,-0.00001142,0.00000106,0.00003677,0.00000542,-0.00
 000016,-0.00024382,0.00009509,0.00000369,0.00100545,0.00064926,-0.0000
 3142,0.00243991,-0.00061421,0.00027202,0.03223847,0.34385380,-0.000001
 23,0.00000088,-0.00000063,0.00000046,-0.00000195,-0.00000005,-0.000000
 36,0.00000179,-0.00000047,0.00000005,-0.00000215,-0.00000019,-0.000000
 10,0.00000190,-0.00000063,-0.00000020,-0.00000246,-0.00000055,0.000000
 13,0.00000217,-0.00000129,-0.00000058,-0.00000284,-0.00000021,0.000000
 56,0.00000276,-0.00000050,-0.00000148,-0.00000367,-0.00000412,0.000001
 49,0.00000312,-0.00001485,-0.00000332,-0.00000325,0.00002054,0.0000016
 9,0.00000504,-0.00001462,-0.00002639,-0.00004486,-0.00021956,0.0000872
 0,-0.00017985,-0.00191980,0.00020121,0.00099971,0.00286444,0.00194238,
 0.01722926,-0.04112015,0.00007875,0.00120757,0.00476300,-0.00018157,-0
 .00040862,-0.00604530,0.00001162,-0.00002296,0.00009213,-0.00000024,0.
 ,0.00000021,0.00000004,-0.00000002,0.00000027,0.00000003,0.00000031,0.
 00000022,0.,0.00000004,0.00000033,0.,0.00000038,0.00000035,0.,0.000000
 07,0.00000051,-0.00000001,0.00000046,0.00000056,0.,0.00000011,0.000000
 95,-0.00000002,0.00000056,0.00000101,-0.00000002,0.00000016,0.00000164
 ,-0.00000001,0.00000066,0.00000101,-0.00000011,0.00000021,0.00000373,0
 .00000012,0.00000106,0.00000565,-0.00000184,0.00000021,0.00000683,0.00
 001542,0.00000369,0.00012888,-0.00005775,-0.00001891,0.00024447,-0.000
 09615,0.00027213,0.00409615,-0.00221509,-0.01958697,0.02728120,0.00000
 051,-0.00000008,0.,-0.00000066,0.00000032,-0.00000001,0.00000100,-0.00
 000019,0.,-0.00000150,0.00000031,-0.00000001,0.00000216,-0.00000009,-0
 .00000001,-0.00000306,0.00000031,0.,0.00000420,0.00000005,-0.00000004,
 -0.00000574,0.00000025,-0.00000001,0.00000778,0.00000027,-0.00000007,-
 0.00001001,-0.00000011,0.00000020,0.00001373,0.00000099,-0.00000020,-0
 .00001618,-0.00000266,-0.00000033,0.00003946,0.00000795,-0.00000051,-0
 .00000612,0.00006856,-0.00000273,-0.00008630,0.00021207,-0.00001304,0.
 00140859,-0.00189186,0.00006707,-0.00042048,-0.03076220,0.00191068,-0.
 06213588,-0.02999070,0.00198132,0.00489662,0.02629392,-0.00161570,0.00
 164172,0.00100816,-0.00008248,0.00000003,0.,0.,0.,0.00000005,0.,-0.000
 00002,0.00000003,0.,0.00000004,0.00000007,0.,-0.00000005,0.00000007,0.
 ,0.00000008,0.00000010,0.,-0.00000010,0.00000016,0.,0.00000017,0.00000
 018,0.,-0.00000024,0.00000036,-0.00000001,0.00000038,0.00000040,-0.000
 00001,-0.00000056,0.00000093,-0.00000004,0.00000139,0.00000122,-0.0000
 0014,-0.00000358,0.00000308,-0.00000014,0.00001264,0.00000416,-0.00000
 021,-0.00005347,0.00003669,-0.00000184,0.00012936,0.00023526,-0.000012
 88,-0.00028851,0.00099261,-0.00005685,-0.00466262,-0.00169928,0.000194
 96,0.06352070,0.00000150,-0.00000194,0.00000007,0.00000043,0.00000294,
 -0.00000018,-0.00000185,-0.00000343,0.00000020,0.00000336,0.00000264,-
 0.00000021,-0.00000540,-0.00000351,0.00000021,0.00000769,0.00000209,-0
 .00000014,-0.00001144,-0.00000386,0.00000024,0.00001558,0.00000081,-0.
 00000046,-0.00002311,-0.00000449,0.00000042,0.00003129,-0.00000218,0.0
 0000114,-0.00004942,-0.00000556,0.00000022,0.00006443,-0.00001502,-0.0
 0000500,-0.00011436,-0.00000335,0.00000316,0.00009495,-0.00004518,0.00
 001512,-0.00035381,0.00048059,-0.00003321,0.00215630,0.00080619,-0.000
 42272,-0.00058274,-0.01109968,0.00097980,-0.03138882,-0.32075781,0.017
 38499,-0.00400544,-0.01616037,0.00119354,-0.00122190,0.00113925,-0.000
 15517,0.00000038,0.,0.00000001,-0.00000006,0.00000021,0.,-0.00000003,-
 0.00000031,0.00000003,0.00000007,0.00000019,0.,-0.00000004,-0.00000031
 ,0.00000004,0.00000010,0.00000025,0.00000002,-0.00000006,-0.00000024,0
 .00000004,0.00000019,0.00000040,0.,-0.00000012,0.,0.00000006,0.0000004
 3,0.00000077,0.00000007,-0.00000038,0.00000064,0.00000007,0.00000133,0
 .00000172,-0.00000060,-0.00000112,0.00000277,0.00000006,0.00000449,0.0
 0000320,0.00000090,-0.00001945,0.00000879,-0.00000005,0.00023622,0.000
 00178,0.00001969,-0.00088994,0.00063706,-0.00001670,-0.00166458,0.0003
 1491,0.00055022,0.03420599,0.34438162,-0.00000012,0.00000008,-0.000000
 45,0.,-0.00000018,-0.00000014,0.00000007,0.00000018,-0.00000025,-0.000
 00018,-0.00000020,-0.00000054,0.00000029,0.00000019,-0.00000034,-0.000
 00043,-0.00000009,0.00000039,0.00000071,0.00000017,-0.00000093,-0.0000
 0095,-0.00000038,-0.00000501,0.00000138,0.00000027,-0.00000022,-0.0000
 0175,0.00000136,0.00001983,0.00000288,-0.00000011,-0.00000728,-0.00000
 444,-0.00000455,-0.00008994,0.00000699,0.00000235,0.00003602,-0.000004
 33,0.00001528,0.00021234,0.00002151,-0.00003695,-0.00010021,-0.0001797
 8,-0.00039598,-0.00586857,0.00007076,0.00117927,0.00483590,0.00206652,
 0.01737574,-0.04007803,0.00023158,0.00099330,0.00292062,0.00005345,-0.
 00016994,-0.00152887,-0.00000003,0.,0.00000016,0.,0.,0.00000023,0.,0.0
 0000005,0.00000023,0.,0.,0.00000024,0.00000001,0.00000006,0.00000035,-
 0.00000001,0.,0.00000045,0.00000001,0.00000006,0.00000054,-0.00000001,
 0.,0.00000043,0.,0.00000006,0.00000097,-0.00000002,0.00000007,0.000002
 04,0.00000004,0.00000005,0.00000162,-0.00000014,-0.00000060,-0.0000079
 4,0.00000011,0.00000004,0.00000369,-0.00000023,0.00000090,0.00001849,0
 .00000157,-0.00000042,0.00000575,-0.00001294,0.00001971,0.00034922,0.0
 0005793,-0.00002913,0.00026808,0.00019285,0.00055046,0.00912459,-0.002
 33994,-0.01969689,0.02622970,0.00000116,-0.00000110,0.00000007,-0.0000
 0010,0.00000209,-0.00000014,-0.00000050,-0.00000200,0.00000013,0.00000
 116,0.00000202,-0.00000014,-0.00000188,-0.00000189,0.00000013,0.000002
 72,0.00000185,-0.00000014,-0.00000398,-0.00000178,0.00000013,0.0000053
 8,0.00000139,-0.00000012,-0.00000771,-0.00000143,0.00000013,0.00001024
 ,0.00000035,-0.00000010,-0.00001422,-0.00000047,0.00000013,0.00001977,
 -0.00000223,-0.00000003,-0.00002614,0.00000088,0.00000005,0.00005946,-
 0.00001086,0.00000037,-0.00005608,-0.00008887,0.00000566,-0.00007511,-
 0.00008451,0.00000430,0.00164459,0.00142927,-0.00010887,0.00465407,0.0
 2637523,-0.00161882,-0.06189723,-0.03147798,0.00205248,-0.00135290,-0.
 03193865,0.00199055,0.00000028,-0.00000002,0.,-0.00000006,0.00000005,0
 .,-0.00000003,-0.00000033,0.00000002,-0.00000002,-0.00000003,0.,0.0000
 0001,-0.00000039,0.00000003,-0.00000004,-0.00000007,0.,0.00000003,-0.0
 0000044,0.00000003,-0.00000008,-0.00000012,0.00000001,0.00000006,-0.00
 000051,0.00000003,-0.00000019,-0.00000020,0.00000002,0.00000011,-0.000
 00061,0.00000004,-0.00000044,-0.00000043,0.00000004,0.00000051,-0.0000
 0103,0.00000007,-0.00000333,-0.00000100,0.00000011,0.00000826,-0.00000
 356,0.00000020,-0.00005095,-0.00001875,0.00000155,0.00004136,-0.000242
 98,0.00001525,-0.00028790,-0.00089446,0.00005789,-0.00388196,0.0024314
 8,-0.00009838,0.06485122,0.00001672,-0.00001228,0.00000062,-0.00000658
 ,0.00002619,-0.00000157,0.00000536,-0.00002419,0.00000144,-0.00000156,
 0.00002870,-0.00000176,0.00000261,-0.00002553,0.00000152,0.00000043,0.
 00003240,-0.00000200,0.00000116,-0.00002894,0.00000172,0.00000298,0.00
 003742,-0.00000234,-0.00000091,-0.00003446,0.00000205,0.00000768,0.000
 04484,-0.00000282,-0.00000570,-0.00004415,0.00000270,0.00001923,0.0000
 5621,-0.00000384,-0.00001815,-0.00006622,0.00000348,0.00004373,0.00007
 879,-0.00000416,-0.00001079,-0.00009174,0.00000439,0.00042755,0.000553
 71,-0.00004891,-0.00181279,0.00085077,-0.00014006,-0.00373335,-0.01692
 684,0.00124063,-0.03285168,-0.32114425,0.01725281,-0.00004081,-0.00955
 639,0.00090064,0.00000326,0.00000007,-0.00000002,-0.00000059,0.0000004
 5,0.,-0.00000033,-0.00000394,0.00000025,0.00000003,-0.00000031,0.00000
 003,0.00000009,-0.00000477,0.00000030,-0.00000006,-0.00000063,0.000000
 06,0.00000019,-0.00000564,0.00000036,-0.00000002,-0.00000092,0.0000000
 9,0.00000032,-0.00000671,0.00000044,0.00000010,-0.00000116,0.00000012,
 0.00000046,-0.00000812,0.00000055,0.00000057,-0.00000112,0.00000016,0.
 00000039,-0.00000977,0.00000068,0.00000270,0.00000015,0.00000023,-0.00
 000216,-0.00001172,0.00000106,0.00003897,0.00000553,0.00000005,-0.0002
 5417,0.00010251,0.00000195,0.00104669,0.00068029,-0.00003500,0.0026181
 5,-0.00062402,0.00024392,0.03619767,0.34402961,-0.00000102,0.00000074,
 -0.00000047,0.00000040,-0.00000162,0.00000002,-0.00000030,0.00000149,-
 0.00000035,0.00000007,-0.00000178,-0.00000010,-0.00000013,0.00000155,-
 0.00000047,-0.00000006,-0.00000202,-0.00000016,-0.00000008,0.00000175,
 -0.00000063,-0.00000022,-0.00000232,-0.00000052,0.00000009,0.00000204,
 -0.00000117,-0.00000052,-0.00000277,-0.00000026,0.00000043,0.00000265,
 -0.00000095,-0.00000131,-0.00000369,-0.00000415,0.00000118,0.00000335,
 -0.00001143,-0.00000296,-0.00000378,0.00001563,0.00000086,0.00000490,-
 0.00002131,-0.00002687,-0.00004551,-0.00019901,0.00008877,-0.00016149,
 -0.00163384,0.00021681,0.00104165,0.00295305,0.00213621,0.01724370,-0.
 04278059,0.00004589,0.00111147,0.00514400,-0.00000020,0.,0.00000016,0.
 00000004,-0.00000002,0.00000019,0.00000002,0.00000024,0.00000014,0.,0.
 00000004,0.00000023,0.,0.00000030,0.00000021,0.00000001,0.00000006,0.0
 0000033,-0.00000001,0.00000036,0.00000033,0.,0.00000009,0.00000050,-0.
 00000001,0.00000045,0.00000054,0.,0.00000013,0.00000090,-0.00000002,0.
 00000056,0.00000098,-0.00000002,0.00000017,0.00000160,-0.00000002,0.00
 000068,0.00000126,-0.00000012,0.00000026,0.00000421,0.00000012,0.00000
 106,0.00000534,-0.00000197,0.00000042,0.00001058,0.00001593,0.00000187
 ,0.00010673,-0.00006046,-0.00002218,0.00022145,-0.00010977,0.00024516,
 0.00364648,-0.00245500,-0.01954883,0.02851056,0.00000261,-0.00000177,0
 .00000008,-0.00000120,0.00000392,-0.00000023,0.00000106,-0.00000345,0.
 00000020,-0.00000072,0.00000415,-0.00000025,0.00000097,-0.00000342,0.0
 0000019,-0.00000092,0.00000446,-0.00000026,0.00000132,-0.00000356,0.00
 000020,-0.00000142,0.00000481,-0.00000028,0.00000204,-0.00000374,0.000
 00021,-0.00000230,0.00000512,-0.00000034,0.00000317,-0.00000393,0.0000
 0021,-0.00000330,0.00000526,-0.00000014,0.00000523,-0.00000370,0.00000
 013,-0.00000392,0.00000299,-0.00000085,0.00002454,-0.00000022,0.000000
 10,0.00003767,0.00007532,-0.00000271,-0.00013689,0.00020604,-0.0000121
 2,0.00178959,-0.00183455,0.00005133,-0.00019700,-0.03088481,0.00191531
 ,-0.06581480,-0.04071060,0.00269758,0.00000050,-0.00000001,0.,-0.00000
 010,0.00000006,0.,-0.00000006,-0.00000059,0.00000004,0.,-0.00000006,0.
 ,-0.00000001,-0.00000070,0.00000004,0.,-0.00000012,0.00000001,-0.00000
 001,-0.00000078,0.00000005,0.,-0.00000017,0.00000001,-0.00000004,-0.00
 000085,0.00000006,0.00000006,-0.00000019,0.00000001,-0.00000012,-0.000
 00086,0.00000006,0.00000018,-0.00000011,0.00000002,-0.00000040,-0.0000
 0059,0.00000005,0.00000131,0.00000049,-0.00000010,-0.00000320,0.000000
 96,0.,0.00001040,0.00000321,-0.00000016,-0.00005026,0.00003365,-0.0000
 0170,0.00013264,0.00023442,-0.00001293,-0.00023329,0.00095229,-0.00005
 460,-0.00466783,-0.00160257,0.00020109,0.06251430,-0.00000168,0.000000
 63,-0.00000006,0.00000137,-0.00000222,0.00000013,-0.00000199,0.0000014
 3,-0.00000010,0.00000245,-0.00000261,0.00000014,-0.00000376,0.00000136
 ,-0.00000009,0.00000486,-0.00000324,0.00000014,-0.00000716,0.00000131,
 -0.00000006,0.00000928,-0.00000423,0.00000023,-0.00001348,0.00000112,-
 0.00000004,0.00001762,-0.00000606,-0.00000012,-0.00002604,0.00000057,0
 .00000011,0.00003458,-0.00000962,0.00000181,-0.00005517,-0.00000065,-0
 .00000015,0.00007152,-0.00002301,-0.00000546,-0.00012876,-0.00000187,0
 .00000326,0.00011599,-0.00005842,0.00002243,-0.00034293,0.00043016,-0.
 00002824,0.00221084,0.00097310,-0.00052313,-0.00074968,-0.00972707,0.0
 0088473,-0.04415714,-0.33018232,0.01839802,-0.00000029,0.00000002,0.00
 000001,0.00000007,0.00000008,0.,0.00000005,0.00000045,-0.00000002,0.00
 000005,0.00000021,0.,-0.00000002,0.00000056,-0.00000002,0.00000009,0.0
 0000032,0.,-0.00000004,0.00000072,-0.00000002,0.00000015,0.00000048,0.
 ,-0.00000007,0.00000096,-0.00000002,0.00000026,0.00000076,-0.00000002,
 -0.00000016,0.00000138,0.,0.00000056,0.00000129,0.00000008,-0.00000036
 ,0.00000227,-0.00000002,0.00000157,0.00000248,-0.00000072,-0.00000095,
 0.00000469,-0.00000002,0.00000496,0.00000403,0.00000070,-0.00001458,0.
 00000793,-0.00000019,0.00022026,-0.00001650,0.00002018,-0.00096927,0.0
 0054565,-0.00000916,-0.00190064,0.00087870,0.00062808,0.05085670,0.349
 32729,0.00000007,-0.00000005,-0.00000039,-0.00000006,0.00000010,-0.000
 00020,0.00000009,-0.00000008,-0.00000017,-0.00000013,0.00000010,-0.000
 00023,0.00000021,-0.00000007,-0.00000033,-0.00000029,0.00000013,-0.000
 00067,0.00000045,-0.00000009,-0.00000044,-0.00000056,0.00000024,0.0000
 0048,0.00000083,-0.00000010,-0.00000106,-0.00000113,-0.00000002,-0.000
 00612,0.00000157,-0.00000003,-0.00000036,-0.00000193,0.00000200,0.0000
 2347,0.00000329,-0.00000049,-0.00000907,-0.00000502,-0.00000502,-0.000
 10441,0.00000797,0.00000241,0.00003752,-0.00000522,0.00002268,0.000320
 51,0.00002133,-0.00003187,-0.00006832,-0.00019534,-0.00049639,-0.00733
 647,0.00007812,0.00108392,0.00463714,0.00290768,0.01837524,-0.03433563
 ,0.,0.,0.00000015,0.,0.,0.00000020,0.,0.,0.00000020,0.,0.,0.00000022,0
 .00000001,0.,0.00000028,-0.00000001,0.,0.00000031,0.,-0.00000001,0.000
 00041,0.,0.,0.00000055,0.,0.,0.00000063,-0.00000002,-0.00000002,0.0000
 0054,0.00000002,0.,0.00000116,-0.00000001,0.00000008,0.00000260,0.0000
 0004,-0.00000002,0.00000198,-0.00000016,-0.00000071,-0.00000902,0.0000
 0010,-0.00000003,0.00000423,-0.00000027,0.00000072,0.00001600,0.000001
 24,-0.00000050,0.00000326,-0.00001206,0.00002010,0.00033727,0.00006255
 ,-0.00002187,0.00029137,0.00021926,0.00062609,0.01093499,-0.00337003,-
 0.02030787,0.02300117,-0.00001367,0.00000970,-0.00000050,0.00000577,-0
 .00002119,0.00000125,-0.00000504,0.00001911,-0.00000113,0.00000243,-0.
 00002314,0.00000139,-0.00000373,0.00001983,-0.00000118,0.00000214,-0.0
 0002596,0.00000157,-0.00000427,0.00002190,-0.00000131,0.00000253,-0.00
 002974,0.00000177,-0.00000592,0.00002503,-0.00000149,0.00000350,-0.000
 03525,0.00000221,-0.00000967,0.00003029,-0.00000181,0.00000374,-0.0000
 4507,0.00000227,-0.00002113,0.00004452,-0.00000251,-0.00001244,-0.0000
 7908,0.00000695,-0.00009235,0.00014276,-0.00000858,-0.00025739,-0.0003
 6535,0.00001437,-0.00062886,0.00134031,-0.00007604,-0.00264086,-0.0042
 2423,0.00035181,-0.01875314,0.02041991,-0.00109336,-0.23831727,0.13671
 725,-0.00696608,-0.00000267,-0.00000002,0.00000002,0.00000050,-0.00000
 029,0.00000002,0.00000028,0.00000327,-0.00000020,0.00000003,0.00000038
 ,-0.00000002,-0.00000008,0.00000396,-0.00000024,0.00000013,0.00000072,
 -0.00000004,-0.00000016,0.00000468,-0.00000028,0.00000017,0.00000107,-
 0.00000007,-0.00000027,0.00000561,-0.00000034,0.00000024,0.00000151,-0
 .00000008,-0.00000041,0.00000686,-0.00000041,0.00000041,0.00000202,-0.
 00000014,-0.00000056,0.00000866,-0.00000051,0.00000080,0.00000221,0.00
 000001,0.00000076,0.00001162,-0.00000071,0.00000128,-0.00000175,-0.000
 00039,0.00001603,0.00001724,-0.00000099,0.00000523,-0.00007388,0.00000
 544,0.00012980,0.00012558,-0.00001038,0.00102831,-0.00009483,-0.000046
 86,0.00659023,-0.00517906,0.00028741,0.25297555,0.00000020,0.00000030,
 -0.00000004,-0.00000069,-0.00000027,0.00000002,0.00000101,0.00000063,-
 0.00000006,-0.00000181,-0.00000053,0.00000002,0.00000243,0.00000110,-0
 .00000009,-0.00000378,-0.00000090,0.00000010,0.00000494,0.00000188,-0.
 00000018,-0.00000730,-0.00000148,-0.00000008,0.00000947,0.00000326,-0.
 00000025,-0.00001389,-0.00000242,0.00000103,0.00001805,0.00000630,-0.0
 0000078,-0.00002757,-0.00000518,-0.00000362,0.00003512,0.00001554,-0.0
 0000063,-0.00006605,-0.00001788,0.00002036,0.00006138,0.00006507,-0.00
 000890,-0.00027911,-0.00012744,-0.00007892,-0.00017280,0.00079745,-0.0
 0003353,-0.00210173,-0.00089591,0.00077719,-0.01250232,0.01064972,-0.0
 0031199,0.14122894,-0.16485440,0.00721652,-0.00000002,-0.00000005,0.00
 000001,-0.00000001,0.00000002,0.,-0.00000002,0.00000007,0.,0.,0.,0.,-0
 .00000005,0.00000013,0.,0.00000001,0.,0.00000002,-0.00000010,0.0000002
 3,0.,0.00000004,0.,0.,-0.00000018,0.00000041,0.,0.00000008,0.00000002,
 0.00000009,-0.00000034,0.00000075,0.,0.00000020,0.00000005,-0.00000014
 ,-0.00000089,0.00000153,0.00000002,0.00000066,0.00000031,0.00000137,-0
 .00000166,0.00000340,-0.00000016,0.00000013,-0.00000162,-0.00000446,-0
 .00000655,0.00001056,0.00000093,0.00008503,-0.00000850,0.00000886,-0.0
 0037623,0.00039676,-0.00003898,0.00023504,0.00122748,-0.00049923,0.022
 66749,-0.01215214,0.00073145,-0.14878715,0.16488573,0.00000007,-0.0000
 0011,-0.00000032,0.00000001,0.00000015,-0.00000010,-0.00000005,-0.0000
 0018,-0.00000015,0.00000010,0.00000016,-0.00000038,-0.00000014,-0.0000
 0021,-0.00000020,0.00000022,0.00000026,0.00000038,-0.00000025,-0.00000
 030,-0.00000053,0.00000040,0.00000006,-0.00000357,-0.00000052,-0.00000
 035,0.00000022,0.00000089,0.00000118,0.00001291,-0.00000106,-0.0000008
 5,-0.00000434,0.00000120,-0.00000350,-0.00006745,-0.00000192,-0.000000
 69,0.00000916,0.00000615,0.00002043,0.00030762,-0.00000360,-0.00000944
 ,-0.00007356,0.00000910,-0.00007835,-0.00144746,0.00001620,-0.00004353
 ,0.00023130,0.00022240,0.00079122,0.01157447,0.00091379,-0.00052957,0.
 00420326,-0.00724114,0.00724633,-0.03156866,0.00000002,0.,0.00000012,0
 .,0.,0.00000016,0.,0.,0.00000016,0.,0.,0.00000017,0.00000001,-0.000000
 01,0.00000022,0.,0.00000001,0.00000029,0.00000001,-0.00000002,0.000000
 30,0.,0.,0.00000018,0.00000001,-0.00000003,0.00000047,0.,0.00000007,0.
 00000142,0.00000003,-0.00000006,0.00000061,-0.00000003,-0.00000016,-0.
 00000228,0.00000007,-0.00000004,0.00000183,0.00000011,0.00000136,0.000
 02282,0.00000009,-0.00000025,0.00000062,-0.00000051,-0.00000444,-0.000
 07442,0.00000046,0.00000078,0.00002509,-0.00000425,0.00000992,0.000145
 49,0.00002020,-0.00004231,-0.00028100,-0.00006696,-0.00049705,-0.00690
 499,-0.00141029,0.00091549,0.00225627,0.00753918,-0.00777601,0.0216338
 7\\0.00001472,0.00000457,-0.00000038,0.00000139,-0.00000209,0.00000011
 ,-0.00000584,0.00000594,-0.00000033,0.00000272,-0.00000446,0.00000025,
 -0.00000423,0.00000606,-0.00000035,-0.00000065,-0.00000275,0.00000017,
 0.00000265,0.00000430,-0.00000028,-0.00000618,-0.00000296,0.00000023,0
 .00000914,0.00000417,-0.00000030,-0.00001028,-0.00000376,0.00000032,0.
 00001030,0.00000374,-0.00000026,-0.00000931,-0.00000415,0.00000035,0.0
 0000640,0.00000290,-0.00000017,-0.00000293,-0.00000424,0.00000032,0.00
 000101,0.00000267,-0.00000013,0.00000403,-0.00000602,0.00000038,-0.000
 00237,0.00000443,-0.00000023,0.00000571,-0.00000593,0.00000033,-0.0000
 0116,0.00000216,-0.00000009,-0.00001487,-0.00000461,0.00000040,-0.0000
 0218,-0.00000280,0.00000019,-0.00000373,-0.00000138,0.00000011,-0.0000
 0241,0.00000067,-0.00000002,0.00000238,-0.00000304,0.00000017,-0.00000
 277,0.00000273,-0.00000014,0.00000197,-0.00000313,0.00000018,-0.000002
 74,0.00000196,-0.00000010,0.00000172,-0.00000248,0.00000014,-0.0000017
 9,0.00000177,-0.00000010,0.00000116,-0.00000209,0.00000010,-0.00000116
 ,0.00000183,-0.00000013,0.00000112,-0.00000181,0.00000007,-0.00000119,
 0.00000212,-0.00000016,0.00000174,-0.00000176,0.00000005,-0.00000174,0
 .00000251,-0.00000019,0.00000270,-0.00000198,0.00000005,-0.00000198,0.
 00000314,-0.00000022,0.00000273,-0.00000274,0.00000012,-0.00000239,0.0
 0000301,-0.00000019,0.00000237,-0.00000068,0.,0.00000376,0.00000134,-0
 .00000012,0.00000217,0.00000280,-0.00000019\\\@


 Age does not diminish the extreme disappointment of
 having a scoop of ice cream fall from the cone.
 -- Jim Fiebig
 Job cpu time:       0 days  1 hours 37 minutes 11.8 seconds.
 Elapsed time:       0 days  0 hours 24 minutes 18.2 seconds.
 File lengths (MBytes):  RWF=    690 Int=      0 D2E=      0 Chk=     38 Scr=      1
 Normal termination of Gaussian 16 at Thu Nov  9 21:07:56 2023.
