 Entering Gaussian System, Link 0=g16
 Input=./com/16.com
 Output=./log/16.log
 Initial command:
 /home/shohei/gaussian/g16/l1.exe "/home/shohei/gaussian/scratch/Gau-15406.inp" -scrdir="/home/shohei/gaussian/scratch/"
 Entering Link 1 = /home/shohei/gaussian/g16/l1.exe PID=     15408.
  
 Copyright (c) 1988-2017, Gaussian, Inc.  All Rights Reserved.
  
 This is part of the Gaussian(R) 16 program.  It is based on
 the Gaussian(R) 09 system (copyright 2009, Gaussian, Inc.),
 the Gaussian(R) 03 system (copyright 2003, Gaussian, Inc.),
 the Gaussian(R) 98 system (copyright 1998, Gaussian, Inc.),
 the Gaussian(R) 94 system (copyright 1995, Gaussian, Inc.),
 the Gaussian 92(TM) system (copyright 1992, Gaussian, Inc.),
 the Gaussian 90(TM) system (copyright 1990, Gaussian, Inc.),
 the Gaussian 88(TM) system (copyright 1988, Gaussian, Inc.),
 the Gaussian 86(TM) system (copyright 1986, Carnegie Mellon
 University), and the Gaussian 82(TM) system (copyright 1983,
 Carnegie Mellon University). Gaussian is a federally registered
 trademark of Gaussian, Inc.
  
 This software contains proprietary and confidential information,
 including trade secrets, belonging to Gaussian, Inc.
  
 This software is provided under written license and may be
 used, copied, transmitted, or stored only in accord with that
 written license.
  
 The following legend is applicable only to US Government
 contracts under FAR:
  
                    RESTRICTED RIGHTS LEGEND
  
 Use, reproduction and disclosure by the US Government is
 subject to restrictions as set forth in subparagraphs (a)
 and (c) of the Commercial Computer Software - Restricted
 Rights clause in FAR 52.227-19.
  
 Gaussian, Inc.
 340 Quinnipiac St., Bldg. 40, Wallingford CT 06492
  
  
 ---------------------------------------------------------------
 Warning -- This program may not be used in any manner that
 competes with the business of Gaussian, Inc. or will provide
 assistance to any competitor of Gaussian, Inc.  The licensee
 of this program is prohibited from giving any competitor of
 Gaussian, Inc. access to this program.  By using this program,
 the user acknowledges that Gaussian, Inc. is engaged in the
 business of creating and licensing software in the field of
 computational chemistry and represents and warrants to the
 licensee that it is not a competitor of Gaussian, Inc. and that
 it will not use this program in any manner prohibited above.
 ---------------------------------------------------------------
  

 Cite this work as:
 Gaussian 16, Revision B.01,
 M. J. Frisch, G. W. Trucks, H. B. Schlegel, G. E. Scuseria, 
 M. A. Robb, J. R. Cheeseman, G. Scalmani, V. Barone, 
 G. A. Petersson, H. Nakatsuji, X. Li, M. Caricato, A. V. Marenich, 
 J. Bloino, B. G. Janesko, R. Gomperts, B. Mennucci, H. P. Hratchian, 
 J. V. Ortiz, A. F. Izmaylov, J. L. Sonnenberg, D. Williams-Young, 
 F. Ding, F. Lipparini, F. Egidi, J. Goings, B. Peng, A. Petrone, 
 T. Henderson, D. Ranasinghe, V. G. Zakrzewski, J. Gao, N. Rega, 
 G. Zheng, W. Liang, M. Hada, M. Ehara, K. Toyota, R. Fukuda, 
 J. Hasegawa, M. Ishida, T. Nakajima, Y. Honda, O. Kitao, H. Nakai, 
 T. Vreven, K. Throssell, J. A. Montgomery, Jr., J. E. Peralta, 
 F. Ogliaro, M. J. Bearpark, J. J. Heyd, E. N. Brothers, K. N. Kudin, 
 V. N. Staroverov, T. A. Keith, R. Kobayashi, J. Normand, 
 K. Raghavachari, A. P. Rendell, J. C. Burant, S. S. Iyengar, 
 J. Tomasi, M. Cossi, J. M. Millam, M. Klene, C. Adamo, R. Cammi, 
 J. W. Ochterski, R. L. Martin, K. Morokuma, O. Farkas, 
 J. B. Foresman, and D. J. Fox, Gaussian, Inc., Wallingford CT, 2016.
 
 ******************************************
 Gaussian 16:  EM64L-G16RevB.01 20-Dec-2017
                 9-Nov-2023 
 ******************************************
 %chk=checkpoint.chk
 %nprocshared=4
 Will use up to    4 processors via shared memory.
 ---------------------------
 # B3LYP/6-31G(d,p) OPT FREQ
 ---------------------------
 1/18=20,19=15,26=3,38=1/1,3;
 2/9=110,12=2,17=6,18=5,40=1/2;
 3/5=1,6=6,7=101,11=2,25=1,30=1,71=1,74=-5/1,2,3;
 4//1;
 5/5=2,38=5/2;
 6/7=2,8=2,9=2,10=2,28=1/1;
 7//1,2,3,16;
 1/18=20,19=15,26=3/3(2);
 2/9=110/2;
 99//99;
 2/9=110/2;
 3/5=1,6=6,7=101,11=2,25=1,30=1,71=1,74=-5/1,2,3;
 4/5=5,16=3,69=1/1;
 5/5=2,38=5/2;
 7//1,2,3,16;
 1/18=20,19=15,26=3/3(-5);
 2/9=110/2;
 6/7=2,8=2,9=2,10=2,19=2,28=1/1;
 99/9=1/99;
 ------
 16poly
 ------
 Symbolic Z-matrix:
 Charge =  0 Multiplicity = 1
 C                    -2.37822   1.121     0.01716 
 C                    -1.16286   1.67186  -0.02351 
 C                     0.05551   0.83747   0.01904 
 C                     1.273     1.39457  -0.02209 
 C                     2.49228   0.56061   0.02037 
 C                     3.7096    1.11816  -0.02093 
 C                     4.9293    0.28481   0.02137 
 C                     6.14621   0.84322  -0.02021 
 C                     7.36673   0.01105   0.02186 
 C                     8.58291   0.571    -0.02005 
 C                     9.80476  -0.25923   0.02177 
 C                     11.01984   0.30305  -0.02045 
 C                     12.24359  -0.5244    0.02112 
 C                     13.45719   0.04106  -0.02128 
 C                     14.68337  -0.78278   0.02013 
 C                     15.89515  -0.21339  -0.02226 
 C                     17.12415  -1.03297   0.01909 
 C                     18.33389  -0.45919  -0.02306 
 C                     19.56587  -1.27424   0.01834 
 C                     20.77354  -0.69603  -0.02342 
 C                     22.00836  -1.50672   0.01809 
 C                     23.21413  -0.92449  -0.02324 
 C                     24.45137  -1.73145   0.01838 
 C                     25.6556  -1.146    -0.02263 
 C                     26.89467  -1.95014   0.01905 
 C                     28.0978  -1.36245  -0.02183 
 C                     29.33805  -2.16481   0.01983 
 C                     30.54055  -1.57582  -0.02109 
 C                     31.78142  -2.37725   0.02051 
 C                     32.98359  -1.78774  -0.02051 
 C                     34.22396  -2.58906   0.02105 
 C                     35.42402  -2.0056   -0.01966 
 H                    -3.26067   1.75182  -0.01526 
 H                    -2.50543   0.04441   0.08266 
 H                    -1.07722   2.75325  -0.08905 
 H                    -0.04264  -0.24381   0.08465 
 H                     1.37014   2.47595  -0.08772 
 H                     2.3952   -0.52073   0.08603 
 H                     3.80644   2.19955  -0.08663 
 H                     4.83293  -0.79659   0.0871 
 H                     6.24213   1.92469  -0.086 
 H                     7.27161  -1.07045   0.08769 
 H                     8.67729   1.65261  -0.08592 
 H                     9.71158  -1.3409    0.08766 
 H                     11.11197   1.38485  -0.08637 
 H                     12.15309  -1.60629   0.08704 
 H                     13.54634   1.12312  -0.08716 
 H                     14.59622  -1.86494   0.08597 
 H                     15.98071   0.86897  -0.08802 
 H                     17.04082  -2.11544   0.08477 
 H                     18.41554   0.62348  -0.08861 
 H                     19.48647  -2.35702   0.08377 
 H                     20.85133   0.38694  -0.08871 
 H                     21.93261  -2.58978   0.08326 
 H                     23.28849   0.15873  -0.08828 
 H                     24.37865  -2.81473   0.08333 
 H                     25.72728  -0.06259  -0.08749 
 H                     26.82414  -3.03359   0.08387 
 H                     28.16766  -0.27893  -0.08662 
 H                     29.26887  -3.24834   0.08462 
 H                     30.60938  -0.49223  -0.08588 
 H                     31.71306  -3.46085   0.08533 
 H                     33.05274  -0.70416  -0.08534 
 H                     34.16748  -3.6724    0.08583 
 H                     35.52215  -0.92592  -0.08443 
 H                     36.32318  -2.61239   0.012 
 

 GradGradGradGradGradGradGradGradGradGradGradGradGradGradGradGradGradGrad
 Berny optimization.
 Initialization pass.
                           ----------------------------
                           !    Initial Parameters    !
                           ! (Angstroms and Degrees)  !
 --------------------------                            --------------------------
 ! Name  Definition              Value          Derivative Info.                !
 --------------------------------------------------------------------------------
 ! R1    R(1,2)                  1.335          estimate D2E/DX2                !
 ! R2    R(1,33)                 1.0852         estimate D2E/DX2                !
 ! R3    R(1,34)                 1.0861         estimate D2E/DX2                !
 ! R4    R(2,3)                  1.4773         estimate D2E/DX2                !
 ! R5    R(2,35)                 1.0868         estimate D2E/DX2                !
 ! R6    R(3,4)                  1.3395         estimate D2E/DX2                !
 ! R7    R(3,36)                 1.0877         estimate D2E/DX2                !
 ! R8    R(4,5)                  1.4778         estimate D2E/DX2                !
 ! R9    R(4,37)                 1.0877         estimate D2E/DX2                !
 ! R10   R(5,6)                  1.3396         estimate D2E/DX2                !
 ! R11   R(5,38)                 1.0877         estimate D2E/DX2                !
 ! R12   R(6,7)                  1.4778         estimate D2E/DX2                !
 ! R13   R(6,39)                 1.0877         estimate D2E/DX2                !
 ! R14   R(7,8)                  1.3396         estimate D2E/DX2                !
 ! R15   R(7,40)                 1.0877         estimate D2E/DX2                !
 ! R16   R(8,9)                  1.4778         estimate D2E/DX2                !
 ! R17   R(8,41)                 1.0877         estimate D2E/DX2                !
 ! R18   R(9,10)                 1.3395         estimate D2E/DX2                !
 ! R19   R(9,42)                 1.0877         estimate D2E/DX2                !
 ! R20   R(10,11)                1.4778         estimate D2E/DX2                !
 ! R21   R(10,43)                1.0877         estimate D2E/DX2                !
 ! R22   R(11,12)                1.3395         estimate D2E/DX2                !
 ! R23   R(11,44)                1.0877         estimate D2E/DX2                !
 ! R24   R(12,13)                1.4778         estimate D2E/DX2                !
 ! R25   R(12,45)                1.0877         estimate D2E/DX2                !
 ! R26   R(13,14)                1.3396         estimate D2E/DX2                !
 ! R27   R(13,46)                1.0877         estimate D2E/DX2                !
 ! R28   R(14,15)                1.4778         estimate D2E/DX2                !
 ! R29   R(14,47)                1.0877         estimate D2E/DX2                !
 ! R30   R(15,16)                1.3396         estimate D2E/DX2                !
 ! R31   R(15,48)                1.0877         estimate D2E/DX2                !
 ! R32   R(16,17)                1.4778         estimate D2E/DX2                !
 ! R33   R(16,49)                1.0877         estimate D2E/DX2                !
 ! R34   R(17,18)                1.3396         estimate D2E/DX2                !
 ! R35   R(17,50)                1.0877         estimate D2E/DX2                !
 ! R36   R(18,19)                1.4778         estimate D2E/DX2                !
 ! R37   R(18,51)                1.0877         estimate D2E/DX2                !
 ! R38   R(19,20)                1.3396         estimate D2E/DX2                !
 ! R39   R(19,52)                1.0877         estimate D2E/DX2                !
 ! R40   R(20,21)                1.4777         estimate D2E/DX2                !
 ! R41   R(20,53)                1.0877         estimate D2E/DX2                !
 ! R42   R(21,22)                1.3396         estimate D2E/DX2                !
 ! R43   R(21,54)                1.0877         estimate D2E/DX2                !
 ! R44   R(22,23)                1.4777         estimate D2E/DX2                !
 ! R45   R(22,55)                1.0877         estimate D2E/DX2                !
 ! R46   R(23,24)                1.3396         estimate D2E/DX2                !
 ! R47   R(23,56)                1.0877         estimate D2E/DX2                !
 ! R48   R(24,25)                1.4777         estimate D2E/DX2                !
 ! R49   R(24,57)                1.0877         estimate D2E/DX2                !
 ! R50   R(25,26)                1.3396         estimate D2E/DX2                !
 ! R51   R(25,58)                1.0877         estimate D2E/DX2                !
 ! R52   R(26,27)                1.4777         estimate D2E/DX2                !
 ! R53   R(26,59)                1.0877         estimate D2E/DX2                !
 ! R54   R(27,28)                1.3396         estimate D2E/DX2                !
 ! R55   R(27,60)                1.0877         estimate D2E/DX2                !
 ! R56   R(28,29)                1.4778         estimate D2E/DX2                !
 ! R57   R(28,61)                1.0877         estimate D2E/DX2                !
 ! R58   R(29,30)                1.3396         estimate D2E/DX2                !
 ! R59   R(29,62)                1.0877         estimate D2E/DX2                !
 ! R60   R(30,31)                1.4773         estimate D2E/DX2                !
 ! R61   R(30,63)                1.0877         estimate D2E/DX2                !
 ! R62   R(31,32)                1.335          estimate D2E/DX2                !
 ! R63   R(31,64)                1.0867         estimate D2E/DX2                !
 ! R64   R(32,65)                1.0861         estimate D2E/DX2                !
 ! R65   R(32,66)                1.0852         estimate D2E/DX2                !
 ! A1    A(2,1,33)             119.9682         estimate D2E/DX2                !
 ! A2    A(2,1,34)             121.1654         estimate D2E/DX2                !
 ! A3    A(33,1,34)            118.8664         estimate D2E/DX2                !
 ! A4    A(1,2,3)              121.1234         estimate D2E/DX2                !
 ! A5    A(1,2,35)             118.9582         estimate D2E/DX2                !
 ! A6    A(3,2,35)             119.9183         estimate D2E/DX2                !
 ! A7    A(2,3,4)              120.9172         estimate D2E/DX2                !
 ! A8    A(2,3,36)             119.2609         estimate D2E/DX2                !
 ! A9    A(4,3,36)             119.8219         estimate D2E/DX2                !
 ! A10   A(3,4,5)              120.9512         estimate D2E/DX2                !
 ! A11   A(3,4,37)             119.7686         estimate D2E/DX2                !
 ! A12   A(5,4,37)             119.2802         estimate D2E/DX2                !
 ! A13   A(4,5,6)              120.9308         estimate D2E/DX2                !
 ! A14   A(4,5,38)             119.2833         estimate D2E/DX2                !
 ! A15   A(6,5,38)             119.7858         estimate D2E/DX2                !
 ! A16   A(5,6,7)              120.9597         estimate D2E/DX2                !
 ! A17   A(5,6,39)             119.773          estimate D2E/DX2                !
 ! A18   A(7,6,39)             119.2673         estimate D2E/DX2                !
 ! A19   A(6,7,8)              120.9178         estimate D2E/DX2                !
 ! A20   A(6,7,40)             119.2917         estimate D2E/DX2                !
 ! A21   A(8,7,40)             119.7905         estimate D2E/DX2                !
 ! A22   A(7,8,9)              120.9741         estimate D2E/DX2                !
 ! A23   A(7,8,41)             119.7664         estimate D2E/DX2                !
 ! A24   A(9,8,41)             119.2595         estimate D2E/DX2                !
 ! A25   A(8,9,10)             120.901          estimate D2E/DX2                !
 ! A26   A(8,9,42)             119.3017         estimate D2E/DX2                !
 ! A27   A(10,9,42)            119.7973         estimate D2E/DX2                !
 ! A28   A(9,10,11)            120.9923         estimate D2E/DX2                !
 ! A29   A(9,10,43)            119.7583         estimate D2E/DX2                !
 ! A30   A(11,10,43)           119.2494         estimate D2E/DX2                !
 ! A31   A(10,11,12)           120.8815         estimate D2E/DX2                !
 ! A32   A(10,11,44)           119.3129         estimate D2E/DX2                !
 ! A33   A(12,11,44)           119.8056         estimate D2E/DX2                !
 ! A34   A(11,12,13)           121.0123         estimate D2E/DX2                !
 ! A35   A(11,12,45)           119.7498         estimate D2E/DX2                !
 ! A36   A(13,12,45)           119.2379         estimate D2E/DX2                !
 ! A37   A(12,13,14)           120.8619         estimate D2E/DX2                !
 ! A38   A(12,13,46)           119.3238         estimate D2E/DX2                !
 ! A39   A(14,13,46)           119.8143         estimate D2E/DX2                !
 ! A40   A(13,14,15)           121.0308         estimate D2E/DX2                !
 ! A41   A(13,14,47)           119.7424         estimate D2E/DX2                !
 ! A42   A(15,14,47)           119.2268         estimate D2E/DX2                !
 ! A43   A(14,15,16)           120.846          estimate D2E/DX2                !
 ! A44   A(14,15,48)           119.3321         estimate D2E/DX2                !
 ! A45   A(16,15,48)           119.8219         estimate D2E/DX2                !
 ! A46   A(15,16,17)           121.0438         estimate D2E/DX2                !
 ! A47   A(15,16,49)           119.7378         estimate D2E/DX2                !
 ! A48   A(17,16,49)           119.2184         estimate D2E/DX2                !
 ! A49   A(16,17,18)           120.8376         estimate D2E/DX2                !
 ! A50   A(16,17,50)           119.3358         estimate D2E/DX2                !
 ! A51   A(18,17,50)           119.8266         estimate D2E/DX2                !
 ! A52   A(17,18,19)           121.0477         estimate D2E/DX2                !
 ! A53   A(17,18,51)           119.7374         estimate D2E/DX2                !
 ! A54   A(19,18,51)           119.2149         estimate D2E/DX2                !
 ! A55   A(18,19,20)           120.8395         estimate D2E/DX2                !
 ! A56   A(18,19,52)           119.3335         estimate D2E/DX2                !
 ! A57   A(20,19,52)           119.827          estimate D2E/DX2                !
 ! A58   A(19,20,21)           121.0408         estimate D2E/DX2                !
 ! A59   A(19,20,53)           119.7416         estimate D2E/DX2                !
 ! A60   A(21,20,53)           119.2176         estimate D2E/DX2                !
 ! A61   A(20,21,22)           120.8519         estimate D2E/DX2                !
 ! A62   A(20,21,54)           119.3253         estimate D2E/DX2                !
 ! A63   A(22,21,54)           119.8228         estimate D2E/DX2                !
 ! A64   A(21,22,23)           121.0241         estimate D2E/DX2                !
 ! A65   A(21,22,55)           119.7497         estimate D2E/DX2                !
 ! A66   A(23,22,55)           119.2262         estimate D2E/DX2                !
 ! A67   A(22,23,24)           120.8723         estimate D2E/DX2                !
 ! A68   A(22,23,56)           119.313          estimate D2E/DX2                !
 ! A69   A(24,23,56)           119.8147         estimate D2E/DX2                !
 ! A70   A(23,24,25)           121.0017         estimate D2E/DX2                !
 ! A71   A(23,24,57)           119.7597         estimate D2E/DX2                !
 ! A72   A(25,24,57)           119.2387         estimate D2E/DX2                !
 ! A73   A(24,25,26)           120.8957         estimate D2E/DX2                !
 ! A74   A(24,25,58)           119.2995         estimate D2E/DX2                !
 ! A75   A(26,25,58)           119.8049         estimate D2E/DX2                !
 ! A76   A(25,26,27)           120.9788         estimate D2E/DX2                !
 ! A77   A(25,26,59)           119.7692         estimate D2E/DX2                !
 ! A78   A(27,26,59)           119.252          estimate D2E/DX2                !
 ! A79   A(26,27,28)           120.9171         estimate D2E/DX2                !
 ! A80   A(26,27,60)           119.2877         estimate D2E/DX2                !
 ! A81   A(28,27,60)           119.7952         estimate D2E/DX2                !
 ! A82   A(27,28,29)           120.9605         estimate D2E/DX2                !
 ! A83   A(27,28,61)           119.7768         estimate D2E/DX2                !
 ! A84   A(29,28,61)           119.2627         estimate D2E/DX2                !
 ! A85   A(28,29,30)           120.934          estimate D2E/DX2                !
 ! A86   A(28,29,62)           119.2873         estimate D2E/DX2                !
 ! A87   A(30,29,62)           119.7787         estimate D2E/DX2                !
 ! A88   A(29,30,31)           120.9268         estimate D2E/DX2                !
 ! A89   A(29,30,63)           119.82           estimate D2E/DX2                !
 ! A90   A(31,30,63)           119.2531         estimate D2E/DX2                !
 ! A91   A(30,31,32)           121.12           estimate D2E/DX2                !
 ! A92   A(30,31,64)           119.9188         estimate D2E/DX2                !
 ! A93   A(32,31,64)           118.9612         estimate D2E/DX2                !
 ! A94   A(31,32,65)           121.1659         estimate D2E/DX2                !
 ! A95   A(31,32,66)           119.9696         estimate D2E/DX2                !
 ! A96   A(65,32,66)           118.8644         estimate D2E/DX2                !
 ! D1    D(33,1,2,3)          -179.9993         estimate D2E/DX2                !
 ! D2    D(33,1,2,35)           -0.0002         estimate D2E/DX2                !
 ! D3    D(34,1,2,3)             0.0003         estimate D2E/DX2                !
 ! D4    D(34,1,2,35)          179.9994         estimate D2E/DX2                !
 ! D5    D(1,2,3,4)            179.9969         estimate D2E/DX2                !
 ! D6    D(1,2,3,36)            -0.0013         estimate D2E/DX2                !
 ! D7    D(35,2,3,4)            -0.0022         estimate D2E/DX2                !
 ! D8    D(35,2,3,36)          179.9995         estimate D2E/DX2                !
 ! D9    D(2,3,4,5)           -179.9972         estimate D2E/DX2                !
 ! D10   D(2,3,4,37)             0.0002         estimate D2E/DX2                !
 ! D11   D(36,3,4,5)             0.0011         estimate D2E/DX2                !
 ! D12   D(36,3,4,37)          179.9985         estimate D2E/DX2                !
 ! D13   D(3,4,5,6)            179.9925         estimate D2E/DX2                !
 ! D14   D(3,4,5,38)            -0.004          estimate D2E/DX2                !
 ! D15   D(37,4,5,6)            -0.0049         estimate D2E/DX2                !
 ! D16   D(37,4,5,38)          179.9986         estimate D2E/DX2                !
 ! D17   D(4,5,6,7)           -179.9947         estimate D2E/DX2                !
 ! D18   D(4,5,6,39)             0.001          estimate D2E/DX2                !
 ! D19   D(38,5,6,7)             0.0018         estimate D2E/DX2                !
 ! D20   D(38,5,6,39)          179.9975         estimate D2E/DX2                !
 ! D21   D(5,6,7,8)            179.9887         estimate D2E/DX2                !
 ! D22   D(5,6,7,40)            -0.0065         estimate D2E/DX2                !
 ! D23   D(39,6,7,8)            -0.007          estimate D2E/DX2                !
 ! D24   D(39,6,7,40)          179.9978         estimate D2E/DX2                !
 ! D25   D(6,7,8,9)           -179.9932         estimate D2E/DX2                !
 ! D26   D(6,7,8,41)             0.0018         estimate D2E/DX2                !
 ! D27   D(40,7,8,9)             0.0019         estimate D2E/DX2                !
 ! D28   D(40,7,8,41)          179.9969         estimate D2E/DX2                !
 ! D29   D(7,8,9,10)           179.9878         estimate D2E/DX2                !
 ! D30   D(7,8,9,42)            -0.0075         estimate D2E/DX2                !
 ! D31   D(41,8,9,10)           -0.0072         estimate D2E/DX2                !
 ! D32   D(41,8,9,42)          179.9975         estimate D2E/DX2                !
 ! D33   D(8,9,10,11)         -179.9939         estimate D2E/DX2                !
 ! D34   D(8,9,10,43)            0.002          estimate D2E/DX2                !
 ! D35   D(42,9,10,11)           0.0014         estimate D2E/DX2                !
 ! D36   D(42,9,10,43)         179.9973         estimate D2E/DX2                !
 ! D37   D(9,10,11,12)         179.9914         estimate D2E/DX2                !
 ! D38   D(9,10,11,44)          -0.0059         estimate D2E/DX2                !
 ! D39   D(43,10,11,12)         -0.0046         estimate D2E/DX2                !
 ! D40   D(43,10,11,44)        179.9981         estimate D2E/DX2                !
 ! D41   D(10,11,12,13)       -179.9973         estimate D2E/DX2                !
 ! D42   D(10,11,12,45)          0.0016         estimate D2E/DX2                !
 ! D43   D(44,11,12,13)          0.0            estimate D2E/DX2                !
 ! D44   D(44,11,12,45)        179.999          estimate D2E/DX2                !
 ! D45   D(11,12,13,14)        179.9999         estimate D2E/DX2                !
 ! D46   D(11,12,13,46)         -0.0014         estimate D2E/DX2                !
 ! D47   D(45,12,13,14)          0.001          estimate D2E/DX2                !
 ! D48   D(45,12,13,46)        179.9997         estimate D2E/DX2                !
 ! D49   D(12,13,14,15)        179.9969         estimate D2E/DX2                !
 ! D50   D(12,13,14,47)          0.0004         estimate D2E/DX2                !
 ! D51   D(46,13,14,15)         -0.0018         estimate D2E/DX2                !
 ! D52   D(46,13,14,47)       -179.9983         estimate D2E/DX2                !
 ! D53   D(13,14,15,16)       -179.9881         estimate D2E/DX2                !
 ! D54   D(13,14,15,48)          0.0057         estimate D2E/DX2                !
 ! D55   D(47,14,15,16)          0.0084         estimate D2E/DX2                !
 ! D56   D(47,14,15,48)       -179.9978         estimate D2E/DX2                !
 ! D57   D(14,15,16,17)        179.9902         estimate D2E/DX2                !
 ! D58   D(14,15,16,49)         -0.0014         estimate D2E/DX2                !
 ! D59   D(48,15,16,17)         -0.0036         estimate D2E/DX2                !
 ! D60   D(48,15,16,49)       -179.9951         estimate D2E/DX2                !
 ! D61   D(15,16,17,18)       -179.9759         estimate D2E/DX2                !
 ! D62   D(15,16,17,50)          0.0134         estimate D2E/DX2                !
 ! D63   D(49,16,17,18)          0.0157         estimate D2E/DX2                !
 ! D64   D(49,16,17,50)       -179.995          estimate D2E/DX2                !
 ! D65   D(16,17,18,19)        179.9846         estimate D2E/DX2                !
 ! D66   D(16,17,18,51)         -0.0032         estimate D2E/DX2                !
 ! D67   D(50,17,18,19)         -0.0046         estimate D2E/DX2                !
 ! D68   D(50,17,18,51)       -179.9925         estimate D2E/DX2                !
 ! D69   D(17,18,19,20)       -179.9679         estimate D2E/DX2                !
 ! D70   D(17,18,19,52)          0.0191         estimate D2E/DX2                !
 ! D71   D(51,18,19,20)          0.02           estimate D2E/DX2                !
 ! D72   D(51,18,19,52)       -179.993          estimate D2E/DX2                !
 ! D73   D(18,19,20,21)        179.9823         estimate D2E/DX2                !
 ! D74   D(18,19,20,53)         -0.0045         estimate D2E/DX2                !
 ! D75   D(52,19,20,21)         -0.0046         estimate D2E/DX2                !
 ! D76   D(52,19,20,53)       -179.9914         estimate D2E/DX2                !
 ! D77   D(19,20,21,22)       -179.9674         estimate D2E/DX2                !
 ! D78   D(19,20,21,54)          0.0203         estimate D2E/DX2                !
 ! D79   D(53,20,21,22)          0.0195         estimate D2E/DX2                !
 ! D80   D(53,20,21,54)       -179.9929         estimate D2E/DX2                !
 ! D81   D(20,21,22,23)        179.9843         estimate D2E/DX2                !
 ! D82   D(20,21,22,55)         -0.0047         estimate D2E/DX2                !
 ! D83   D(54,21,22,23)         -0.0034         estimate D2E/DX2                !
 ! D84   D(54,21,22,55)       -179.9923         estimate D2E/DX2                !
 ! D85   D(21,22,23,24)       -179.9749         estimate D2E/DX2                !
 ! D86   D(21,22,23,56)          0.0163         estimate D2E/DX2                !
 ! D87   D(55,22,23,24)          0.0141         estimate D2E/DX2                !
 ! D88   D(55,22,23,56)       -179.9947         estimate D2E/DX2                !
 ! D89   D(22,23,24,25)        179.9896         estimate D2E/DX2                !
 ! D90   D(22,23,24,57)         -0.0036         estimate D2E/DX2                !
 ! D91   D(56,23,24,25)         -0.0016         estimate D2E/DX2                !
 ! D92   D(56,23,24,57)       -179.9948         estimate D2E/DX2                !
 ! D93   D(23,24,25,26)       -179.987          estimate D2E/DX2                !
 ! D94   D(23,24,25,58)          0.0089         estimate D2E/DX2                !
 ! D95   D(57,24,25,26)          0.0063         estimate D2E/DX2                !
 ! D96   D(57,24,25,58)       -179.9978         estimate D2E/DX2                !
 ! D97   D(24,25,26,27)        179.9959         estimate D2E/DX2                !
 ! D98   D(24,25,26,59)         -0.0019         estimate D2E/DX2                !
 ! D99   D(58,25,26,27)          0.0            estimate D2E/DX2                !
 ! D100  D(58,25,26,59)       -179.9978         estimate D2E/DX2                !
 ! D101  D(25,26,27,28)       -179.998          estimate D2E/DX2                !
 ! D102  D(25,26,27,60)          0.0016         estimate D2E/DX2                !
 ! D103  D(59,26,27,28)         -0.0002         estimate D2E/DX2                !
 ! D104  D(59,26,27,60)        179.9994         estimate D2E/DX2                !
 ! D105  D(26,27,28,29)       -179.9997         estimate D2E/DX2                !
 ! D106  D(26,27,28,61)         -0.0003         estimate D2E/DX2                !
 ! D107  D(60,27,28,29)          0.0006         estimate D2E/DX2                !
 ! D108  D(60,27,28,61)       -180.0            estimate D2E/DX2                !
 ! D109  D(27,28,29,30)        179.9965         estimate D2E/DX2                !
 ! D110  D(27,28,29,62)         -0.0024         estimate D2E/DX2                !
 ! D111  D(61,28,29,30)         -0.0029         estimate D2E/DX2                !
 ! D112  D(61,28,29,62)        179.9982         estimate D2E/DX2                !
 ! D113  D(28,29,30,31)       -179.9985         estimate D2E/DX2                !
 ! D114  D(28,29,30,63)          0.0004         estimate D2E/DX2                !
 ! D115  D(62,29,30,31)          0.0004         estimate D2E/DX2                !
 ! D116  D(62,29,30,63)        179.9993         estimate D2E/DX2                !
 ! D117  D(29,30,31,32)        179.997          estimate D2E/DX2                !
 ! D118  D(29,30,31,64)         -0.0023         estimate D2E/DX2                !
 ! D119  D(63,30,31,32)         -0.0019         estimate D2E/DX2                !
 ! D120  D(63,30,31,64)        179.9988         estimate D2E/DX2                !
 ! D121  D(30,31,32,65)          0.0002         estimate D2E/DX2                !
 ! D122  D(30,31,32,66)       -179.9994         estimate D2E/DX2                !
 ! D123  D(64,31,32,65)        179.9995         estimate D2E/DX2                !
 ! D124  D(64,31,32,66)         -0.0001         estimate D2E/DX2                !
 --------------------------------------------------------------------------------
 Trust Radius=3.00D-01 FncErr=1.00D-07 GrdErr=1.00D-06 EigMax=2.50D+02 EigMin=1.00D-04
 Number of steps in this run=    295 maximum allowed number of steps=    396.
 GradGradGradGradGradGradGradGradGradGradGradGradGradGradGradGradGradGrad

 Stoichiometry    C32H34
 Framework group  C1[X(C32H34)]
 Deg. of freedom   192
 Full point group                 C1      NOp   1
 Largest Abelian subgroup         C1      NOp   1
 Largest concise Abelian subgroup C1      NOp   1
                         Standard orientation:                         
 ---------------------------------------------------------------------
 Center     Atomic      Atomic             Coordinates (Angstroms)
 Number     Number       Type             X           Y           Z
 ---------------------------------------------------------------------
      1          6           0       18.967440    0.201489    0.004118
      2          6           0       17.812308   -0.467738    0.003379
      3          6           0       16.517616    0.243750    0.003734
      4          6           0       15.360979   -0.431920    0.002928
      5          6           0       14.065423    0.279043    0.003220
      6          6           0       12.908993   -0.397058    0.002263
      7          6           0       11.613080    0.313251    0.002436
      8          6           0       10.457157   -0.363689    0.001252
      9          6           0        9.160542    0.345348    0.001275
     10          6           0        8.005490   -0.333062   -0.000154
     11          6           0        6.707743    0.373912   -0.000268
     12          6           0        5.554007   -0.306729   -0.001870
     13          6           0        4.254651    0.397279   -0.002049
     14          6           0        3.102701   -0.286391   -0.003655
     15          6           0        1.801285    0.413779   -0.003772
     16          6           0        0.651536   -0.273609   -0.005141
     17          6           0       -0.652274    0.422053   -0.005047
     18          6           0       -1.799557   -0.269479   -0.005936
     19          6           0       -3.105889    0.421387   -0.005506
     20          6           0       -4.250667   -0.274320   -0.005753
     21          6           0       -5.559399    0.411942   -0.004933
     22          6           0       -6.701891   -0.287542   -0.004530
     23          6           0       -8.012665    0.394777   -0.003362
     24          6           0       -9.153306   -0.307737   -0.002458
     25          6           0      -10.465615    0.371618   -0.001060
     26          6           0      -11.604953   -0.333006    0.000104
     27          6           0      -12.918255    0.344448    0.001594
     28          6           0      -14.056832   -0.361401    0.002798
     29          6           0      -15.370668    0.315071    0.004282
     30          6           0      -16.508870   -0.391274    0.005415
     31          6           0      -17.822194    0.285141    0.006865
     32          6           0      -18.958889   -0.414971    0.007936
     33          1           0       19.907780   -0.340231    0.003829
     34          1           0       18.987901    1.287354    0.005004
     35          1           0       17.833696   -1.554277    0.002489
     36          1           0       16.508689    1.331416    0.004635
     37          1           0       15.370917   -1.519585    0.002003
     38          1           0       14.055425    1.366677    0.004168
     39          1           0       12.919235   -1.484710    0.001273
     40          1           0       11.602374    1.400873    0.003463
     41          1           0       10.468320   -1.451338    0.000175
     42          1           0        9.148579    1.432952    0.002393
     43          1           0        8.018194   -1.420699   -0.001315
     44          1           0        6.693835    1.461487    0.000924
     45          1           0        5.568975   -1.394343   -0.003079
     46          1           0        4.238054    1.484813   -0.000837
     47          1           0        3.120664   -1.373962   -0.004838
     48          1           0        1.781323    1.501254   -0.002628
     49          1           0        0.673095   -1.361118   -0.006204
     50          1           0       -0.676061    1.509451   -0.004068
     51          1           0       -1.774075   -1.356902   -0.006791
     52          1           0       -3.133620    1.508693   -0.004766
     53          1           0       -4.221314   -1.361644   -0.006350
     54          1           0       -5.590793    1.499150   -0.004453
     55          1           0       -6.669107   -1.374765   -0.004884
     56          1           0       -8.047093    1.481897   -0.003095
     57          1           0       -9.117830   -1.394872   -0.002641
     58          1           0      -10.502242    1.458669   -0.000913
     59          1           0      -11.567648   -1.420075   -0.000007
     60          1           0      -12.956236    1.431458    0.001716
     61          1           0      -14.018501   -1.448429    0.002676
     62          1           0      -15.409466    1.402070    0.004434
     63          1           0      -16.470855   -1.478329    0.005251
     64          1           0      -17.872790    1.370700    0.007061
     65          1           0      -18.950099   -1.501004    0.007774
     66          1           0      -19.913490    0.101194    0.008984
 ---------------------------------------------------------------------
 Rotational constants (GHZ):           4.4495733           0.0093369           0.0093173
 Standard basis: 6-31G(d,p) (6D, 7F)
 There are   650 symmetry adapted cartesian basis functions of A   symmetry.
 There are   650 symmetry adapted basis functions of A   symmetry.
   650 basis functions,  1134 primitive gaussians,   650 cartesian basis functions
   113 alpha electrons      113 beta electrons
       nuclear repulsion energy      2031.6795217268 Hartrees.
 NAtoms=   66 NActive=   66 NUniq=   66 SFac= 1.00D+00 NAtFMM=   60 NAOKFM=T Big=T
 Integral buffers will be    131072 words long.
 Raffenetti 2 integral format.
 Two-electron integral symmetry is turned on.
 One-electron integrals computed using PRISM.
 NBasis=   650 RedAO= T EigKep=  1.09D-03  NBF=   650
 NBsUse=   650 1.00D-06 EigRej= -1.00D+00 NBFU=   650
 ExpMin= 1.61D-01 ExpMax= 3.05D+03 ExpMxC= 4.57D+02 IAcc=3 IRadAn=         5 AccDes= 0.00D+00
 Harris functional with IExCor=  402 and IRadAn=       5 diagonalized for initial guess.
 HarFok:  IExCor=  402 AccDes= 0.00D+00 IRadAn=         5 IDoV= 1 UseB2=F ITyADJ=14
 ICtDFT=  3500011 ScaDFX=  1.000000  1.000000  1.000000  1.000000
 FoFCou: FMM=F IPFlag=           0 FMFlag=      100000 FMFlg1=        2001
         NFxFlg=           0 DoJE=T BraDBF=F KetDBF=T FulRan=T
         wScrn=  0.000000 ICntrl=       500 IOpCl=  0 I1Cent=   200000004 NGrid=           0
         NMat0=    1 NMatS0=      1 NMatT0=    0 NMatD0=    1 NMtDS0=    0 NMtDT0=    0
 Petite list used in FoFCou.
 Requested convergence on RMS density matrix=1.00D-08 within 128 cycles.
 Requested convergence on MAX density matrix=1.00D-06.
 Requested convergence on             energy=1.00D-06.
 No special actions if energy rises.
 Integral accuracy reduced to 1.0D-05 until final iterations.
 Initial convergence to 1.0D-05 achieved.  Increase integral accuracy.
 SCF Done:  E(RB3LYP) =  -1239.71375086     A.U. after   13 cycles
            NFock= 13  Conv=0.62D-08     -V/T= 2.0100

 **********************************************************************

            Population analysis using the SCF Density.

 **********************************************************************

 Orbital symmetries:
       Occupied  (A) (A) (A) (A) (A) (A) (A) (A) (A) (A) (A) (A)
                 (A) (A) (A) (A) (A) (A) (A) (A) (A) (A) (A) (A)
                 (A) (A) (A) (A) (A) (A) (A) (A) (A) (A) (A) (A)
                 (A) (A) (A) (A) (A) (A) (A) (A) (A) (A) (A) (A)
                 (A) (A) (A) (A) (A) (A) (A) (A) (A) (A) (A) (A)
                 (A) (A) (A) (A) (A) (A) (A) (A) (A) (A) (A) (A)
                 (A) (A) (A) (A) (A) (A) (A) (A) (A) (A) (A) (A)
                 (A) (A) (A) (A) (A) (A) (A) (A) (A) (A) (A) (A)
                 (A) (A) (A) (A) (A) (A) (A) (A) (A) (A) (A) (A)
                 (A) (A) (A) (A) (A)
       Virtual   (A) (A) (A) (A) (A) (A) (A) (A) (A) (A) (A) (A)
                 (A) (A) (A) (A) (A) (A) (A) (A) (A) (A) (A) (A)
                 (A) (A) (A) (A) (A) (A) (A) (A) (A) (A) (A) (A)
                 (A) (A) (A) (A) (A) (A) (A) (A) (A) (A) (A) (A)
                 (A) (A) (A) (A) (A) (A) (A) (A) (A) (A) (A) (A)
                 (A) (A) (A) (A) (A) (A) (A) (A) (A) (A) (A) (A)
                 (A) (A) (A) (A) (A) (A) (A) (A) (A) (A) (A) (A)
                 (A) (A) (A) (A) (A) (A) (A) (A) (A) (A) (A) (A)
                 (A) (A) (A) (A) (A) (A) (A) (A) (A) (A) (A) (A)
                 (A) (A) (A) (A) (A) (A) (A) (A) (A) (A) (A) (A)
                 (A) (A) (A) (A) (A) (A) (A) (A) (A) (A) (A) (A)
                 (A) (A) (A) (A) (A) (A) (A) (A) (A) (A) (A) (A)
                 (A) (A) (A) (A) (A) (A) (A) (A) (A) (A) (A) (A)
                 (A) (A) (A) (A) (A) (A) (A) (A) (A) (A) (A) (A)
                 (A) (A) (A) (A) (A) (A) (A) (A) (A) (A) (A) (A)
                 (A) (A) (A) (A) (A) (A) (A) (A) (A) (A) (A) (A)
                 (A) (A) (A) (A) (A) (A) (A) (A) (A) (A) (A) (A)
                 (A) (A) (A) (A) (A) (A) (A) (A) (A) (A) (A) (A)
                 (A) (A) (A) (A) (A) (A) (A) (A) (A) (A) (A) (A)
                 (A) (A) (A) (A) (A) (A) (A) (A) (A) (A) (A) (A)
                 (A) (A) (A) (A) (A) (A) (A) (A) (A) (A) (A) (A)
                 (A) (A) (A) (A) (A) (A) (A) (A) (A) (A) (A) (A)
                 (A) (A) (A) (A) (A) (A) (A) (A) (A) (A) (A) (A)
                 (A) (A) (A) (A) (A) (A) (A) (A) (A) (A) (A) (A)
                 (A) (A) (A) (A) (A) (A) (A) (A) (A) (A) (A) (A)
                 (A) (A) (A) (A) (A) (A) (A) (A) (A) (A) (A) (A)
                 (A) (A) (A) (A) (A) (A) (A) (A) (A) (A) (A) (A)
                 (A) (A) (A) (A) (A) (A) (A) (A) (A) (A) (A) (A)
                 (A) (A) (A) (A) (A) (A) (A) (A) (A) (A) (A) (A)
                 (A) (A) (A) (A) (A) (A) (A) (A) (A) (A) (A) (A)
                 (A) (A) (A) (A) (A) (A) (A) (A) (A) (A) (A) (A)
                 (A) (A) (A) (A) (A) (A) (A) (A) (A) (A) (A) (A)
                 (A) (A) (A) (A) (A) (A) (A) (A) (A) (A) (A) (A)
                 (A) (A) (A) (A) (A) (A) (A) (A) (A) (A) (A) (A)
                 (A) (A) (A) (A) (A) (A) (A) (A) (A) (A) (A) (A)
                 (A) (A) (A) (A) (A) (A) (A) (A) (A) (A) (A) (A)
                 (A) (A) (A) (A) (A) (A) (A) (A) (A) (A) (A) (A)
                 (A) (A) (A) (A) (A) (A) (A) (A) (A) (A) (A) (A)
                 (A) (A) (A) (A) (A) (A) (A) (A) (A) (A) (A) (A)
                 (A) (A) (A) (A) (A) (A) (A) (A) (A) (A) (A) (A)
                 (A) (A) (A) (A) (A) (A) (A) (A) (A) (A) (A) (A)
                 (A) (A) (A) (A) (A) (A) (A) (A) (A) (A) (A) (A)
                 (A) (A) (A) (A) (A) (A) (A) (A) (A) (A) (A) (A)
                 (A) (A) (A) (A) (A) (A) (A) (A) (A) (A) (A) (A)
                 (A) (A) (A) (A) (A) (A) (A) (A) (A)
 The electronic state is 1-A.
 Alpha  occ. eigenvalues --  -10.19138 -10.19126 -10.19109 -10.19099 -10.19093
 Alpha  occ. eigenvalues --  -10.19092 -10.19087 -10.19084 -10.19083 -10.19080
 Alpha  occ. eigenvalues --  -10.19077 -10.19074 -10.19070 -10.19066 -10.19061
 Alpha  occ. eigenvalues --  -10.19055 -10.19017 -10.19007 -10.19002 -10.19000
 Alpha  occ. eigenvalues --  -10.18997 -10.18994 -10.18990 -10.18986 -10.18983
 Alpha  occ. eigenvalues --  -10.18979 -10.18975 -10.18970 -10.18938 -10.18921
 Alpha  occ. eigenvalues --  -10.17919 -10.17905  -0.82940  -0.82755  -0.82437
 Alpha  occ. eigenvalues --   -0.81994  -0.81431  -0.80749  -0.79950  -0.79036
 Alpha  occ. eigenvalues --   -0.78012  -0.76882  -0.75654  -0.74340  -0.72959
 Alpha  occ. eigenvalues --   -0.71554  -0.70218  -0.69155  -0.63653  -0.62433
 Alpha  occ. eigenvalues --   -0.60811  -0.59026  -0.57237  -0.57062  -0.56897
 Alpha  occ. eigenvalues --   -0.56630  -0.56254  -0.55840  -0.55569  -0.55297
 Alpha  occ. eigenvalues --   -0.54739  -0.54484  -0.54181  -0.54016  -0.48542
 Alpha  occ. eigenvalues --   -0.48530  -0.47933  -0.47664  -0.47034  -0.46345
 Alpha  occ. eigenvalues --   -0.45846  -0.45224  -0.44390  -0.44179  -0.42434
 Alpha  occ. eigenvalues --   -0.42162  -0.41261  -0.40816  -0.40238  -0.39622
 Alpha  occ. eigenvalues --   -0.39129  -0.38748  -0.38211  -0.38039  -0.37678
 Alpha  occ. eigenvalues --   -0.37504  -0.37399  -0.37349  -0.37004  -0.36639
 Alpha  occ. eigenvalues --   -0.36312  -0.35955  -0.35470  -0.35295  -0.35053
 Alpha  occ. eigenvalues --   -0.34796  -0.34641  -0.34066  -0.34011  -0.33332
 Alpha  occ. eigenvalues --   -0.33303  -0.32816  -0.32440  -0.31393  -0.30193
 Alpha  occ. eigenvalues --   -0.28844  -0.27351  -0.25722  -0.23973  -0.22131
 Alpha  occ. eigenvalues --   -0.20254  -0.18467  -0.17045
 Alpha virt. eigenvalues --   -0.07490  -0.06013  -0.04063  -0.01951   0.00165
 Alpha virt. eigenvalues --    0.02191   0.04059   0.05712   0.07106   0.08202
 Alpha virt. eigenvalues --    0.08211   0.08491   0.08963   0.09018   0.09545
 Alpha virt. eigenvalues --    0.09599   0.09834   0.09943   0.09965   0.09973
 Alpha virt. eigenvalues --    0.10383   0.11302   0.12314   0.12619   0.12665
 Alpha virt. eigenvalues --    0.13471   0.13786   0.13848   0.14101   0.14143
 Alpha virt. eigenvalues --    0.14392   0.14559   0.14816   0.14914   0.14986
 Alpha virt. eigenvalues --    0.15309   0.15512   0.15735   0.15764   0.16116
 Alpha virt. eigenvalues --    0.16568   0.17313   0.17540   0.18763   0.19721
 Alpha virt. eigenvalues --    0.19832   0.20103   0.20736   0.21147   0.21239
 Alpha virt. eigenvalues --    0.24921   0.26051   0.27712   0.29636   0.30550
 Alpha virt. eigenvalues --    0.30620   0.31186   0.31603   0.32392   0.32788
 Alpha virt. eigenvalues --    0.33495   0.34362   0.35064   0.35076   0.35801
 Alpha virt. eigenvalues --    0.36405   0.36582   0.37018   0.37128   0.37275
 Alpha virt. eigenvalues --    0.38069   0.39410   0.41062   0.41385   0.41684
 Alpha virt. eigenvalues --    0.41900   0.42167   0.42244   0.42424   0.44429
 Alpha virt. eigenvalues --    0.45167   0.47658   0.47936   0.51217   0.51621
 Alpha virt. eigenvalues --    0.51648   0.51811   0.52098   0.52508   0.53046
 Alpha virt. eigenvalues --    0.53714   0.53847   0.54509   0.54779   0.55428
 Alpha virt. eigenvalues --    0.56096   0.56464   0.56645   0.57181   0.57293
 Alpha virt. eigenvalues --    0.57611   0.58095   0.58422   0.58680   0.58708
 Alpha virt. eigenvalues --    0.58808   0.58891   0.58974   0.59201   0.59376
 Alpha virt. eigenvalues --    0.59516   0.60024   0.60050   0.60270   0.60334
 Alpha virt. eigenvalues --    0.60621   0.61113   0.61956   0.61988   0.62028
 Alpha virt. eigenvalues --    0.62051   0.63127   0.63486   0.63781   0.64376
 Alpha virt. eigenvalues --    0.64436   0.64795   0.65717   0.65815   0.65851
 Alpha virt. eigenvalues --    0.66416   0.66789   0.66941   0.68069   0.68134
 Alpha virt. eigenvalues --    0.69006   0.69349   0.69799   0.69859   0.71195
 Alpha virt. eigenvalues --    0.71280   0.73432   0.73457   0.75291   0.75324
 Alpha virt. eigenvalues --    0.76552   0.76570   0.78597   0.78696   0.78939
 Alpha virt. eigenvalues --    0.79384   0.80056   0.80942   0.81979   0.82981
 Alpha virt. eigenvalues --    0.83559   0.84005   0.84491   0.84604   0.84802
 Alpha virt. eigenvalues --    0.84917   0.85071   0.85397   0.85760   0.86123
 Alpha virt. eigenvalues --    0.86129   0.86447   0.86722   0.86906   0.87155
 Alpha virt. eigenvalues --    0.87354   0.87446   0.87649   0.87864   0.87968
 Alpha virt. eigenvalues --    0.88477   0.89267   0.89765   0.90015   0.91076
 Alpha virt. eigenvalues --    0.91165   0.91532   0.91641   0.92181   0.92497
 Alpha virt. eigenvalues --    0.92995   0.93965   0.94563   0.95749   0.97151
 Alpha virt. eigenvalues --    0.97722   0.99526   1.00718   1.02509   1.02538
 Alpha virt. eigenvalues --    1.03217   1.03311   1.04280   1.04462   1.04910
 Alpha virt. eigenvalues --    1.05516   1.05828   1.06166   1.06505   1.07110
 Alpha virt. eigenvalues --    1.08237   1.08589   1.09535   1.09949   1.10442
 Alpha virt. eigenvalues --    1.10739   1.12261   1.13276   1.14681   1.16304
 Alpha virt. eigenvalues --    1.16907   1.17278   1.19704   1.20517   1.22742
 Alpha virt. eigenvalues --    1.24098   1.25723   1.27133   1.29223   1.29444
 Alpha virt. eigenvalues --    1.29449   1.29531   1.29861   1.29890   1.30477
 Alpha virt. eigenvalues --    1.30571   1.30705   1.30795   1.31153   1.31324
 Alpha virt. eigenvalues --    1.31736   1.31863   1.32073   1.32434   1.32959
 Alpha virt. eigenvalues --    1.33046   1.33185   1.33673   1.33683   1.33832
 Alpha virt. eigenvalues --    1.34341   1.34699   1.34748   1.34916   1.35808
 Alpha virt. eigenvalues --    1.36465   1.37337   1.38323   1.39384   1.40343
 Alpha virt. eigenvalues --    1.40506   1.41681   1.42903   1.44159   1.45427
 Alpha virt. eigenvalues --    1.45651   1.46680   1.47887   1.49009   1.49566
 Alpha virt. eigenvalues --    1.50009   1.50435   1.50846   1.51017   1.51484
 Alpha virt. eigenvalues --    1.51898   1.52112   1.52705   1.52813   1.54425
 Alpha virt. eigenvalues --    1.54522   1.76355   1.76445   1.76558   1.76593
 Alpha virt. eigenvalues --    1.76660   1.76682   1.76689   1.76986   1.77001
 Alpha virt. eigenvalues --    1.77428   1.77515   1.78031   1.78148   1.78655
 Alpha virt. eigenvalues --    1.78699   1.82229   1.83046   1.84377   1.86158
 Alpha virt. eigenvalues --    1.86256   1.86269   1.88313   1.90754   1.91303
 Alpha virt. eigenvalues --    1.91989   1.92048   1.92334   1.92762   1.92765
 Alpha virt. eigenvalues --    1.93382   1.93601   1.93898   1.93939   1.94870
 Alpha virt. eigenvalues --    1.95173   1.95337   1.96081   1.96095   1.96613
 Alpha virt. eigenvalues --    1.97002   1.98259   1.98363   1.98795   2.01402
 Alpha virt. eigenvalues --    2.03079   2.03672   2.03853   2.04912   2.06106
 Alpha virt. eigenvalues --    2.06991   2.07890   2.08102   2.08127   2.09660
 Alpha virt. eigenvalues --    2.09860   2.09900   2.10177   2.11165   2.11969
 Alpha virt. eigenvalues --    2.12917   2.12920   2.15962   2.16039   2.16207
 Alpha virt. eigenvalues --    2.17699   2.17927   2.18177   2.18961   2.19057
 Alpha virt. eigenvalues --    2.19117   2.20326   2.20332   2.21187   2.21711
 Alpha virt. eigenvalues --    2.22549   2.23146   2.23453   2.24065   2.24075
 Alpha virt. eigenvalues --    2.24625   2.24683   2.26147   2.27718   2.28554
 Alpha virt. eigenvalues --    2.29341   2.31011   2.32713   2.33706   2.34396
 Alpha virt. eigenvalues --    2.35956   2.37204   2.37958   2.39240   2.41598
 Alpha virt. eigenvalues --    2.41611   2.44400   2.44512   2.44703   2.44950
 Alpha virt. eigenvalues --    2.45334   2.46239   2.47208   2.48129   2.48213
 Alpha virt. eigenvalues --    2.48508   2.48561   2.49175   2.49565   2.49650
 Alpha virt. eigenvalues --    2.50343   2.50726   2.50929   2.51641   2.51775
 Alpha virt. eigenvalues --    2.52055   2.52387   2.52608   2.53094   2.53518
 Alpha virt. eigenvalues --    2.54072   2.54163   2.55008   2.55544   2.55810
 Alpha virt. eigenvalues --    2.56004   2.56134   2.57717   2.58117   2.58276
 Alpha virt. eigenvalues --    2.59294   2.59963   2.60617   2.60686   2.61083
 Alpha virt. eigenvalues --    2.62209   2.62893   2.64130   2.64407   2.64725
 Alpha virt. eigenvalues --    2.65001   2.65076   2.66020   2.66900   2.67882
 Alpha virt. eigenvalues --    2.68468   2.68581   2.69242   2.69674   2.69704
 Alpha virt. eigenvalues --    2.70208   2.70472   2.70747   2.70836   2.71053
 Alpha virt. eigenvalues --    2.71220   2.72045   2.72354   2.73502   2.75389
 Alpha virt. eigenvalues --    2.75510   2.76405   2.78595   2.78893   2.80806
 Alpha virt. eigenvalues --    2.81946   2.83896   2.84547   2.84623   2.86943
 Alpha virt. eigenvalues --    2.87075   2.87669   2.88996   2.90766   2.91094
 Alpha virt. eigenvalues --    2.91280   2.91519   2.91902   2.92025   2.92416
 Alpha virt. eigenvalues --    2.92797   2.93176   2.93273   2.93926   2.94699
 Alpha virt. eigenvalues --    2.95362   2.96326   2.96721   2.97754   2.97964
 Alpha virt. eigenvalues --    2.98907   2.99014   2.99713   2.99782   3.00142
 Alpha virt. eigenvalues --    3.00232   3.28035   3.28046   3.35183   3.35327
 Alpha virt. eigenvalues --    3.35592   3.36000   3.36584   3.37368   3.38336
 Alpha virt. eigenvalues --    3.39429   3.40601   3.41876   3.43330   3.45037
 Alpha virt. eigenvalues --    3.47031   3.49300   3.51264   3.51760   3.52817
 Alpha virt. eigenvalues --    3.54159   3.55130   3.57898   3.58877   3.60769
 Alpha virt. eigenvalues --    3.61160   3.63328   3.63794   3.65476   3.66159
 Alpha virt. eigenvalues --    3.67128   3.67870   3.68177   3.71063   3.71078
 Alpha virt. eigenvalues --    4.13731   4.13764   4.13848   4.13934   4.14013
 Alpha virt. eigenvalues --    4.14111   4.14269   4.14522   4.14904   4.15443
 Alpha virt. eigenvalues --    4.16169   4.17112   4.18296   4.19735   4.21400
 Alpha virt. eigenvalues --    4.25174   4.25963   4.28981   4.32019   4.35386
 Alpha virt. eigenvalues --    4.39046   4.42954   4.47051   4.51261   4.55492
 Alpha virt. eigenvalues --    4.59635   4.63569   4.67171   4.70316   4.72892
 Alpha virt. eigenvalues --    4.74805   4.75990
          Condensed to atoms (all electrons):
 Mulliken charges:
               1
     1  C   -0.251967
     2  C   -0.033564
     3  C   -0.077889
     4  C   -0.076681
     5  C   -0.080844
     6  C   -0.078910
     7  C   -0.079961
     8  C   -0.079571
     9  C   -0.079864
    10  C   -0.079712
    11  C   -0.079812
    12  C   -0.079794
    13  C   -0.079763
    14  C   -0.079847
    15  C   -0.079718
    16  C   -0.079881
    17  C   -0.079678
    18  C   -0.079897
    19  C   -0.079641
    20  C   -0.079900
    21  C   -0.079608
    22  C   -0.079898
    23  C   -0.079564
    24  C   -0.079901
    25  C   -0.079467
    26  C   -0.079960
    27  C   -0.078848
    28  C   -0.080816
    29  C   -0.076654
    30  C   -0.077850
    31  C   -0.033570
    32  C   -0.251914
    33  H    0.095326
    34  H    0.095490
    35  H    0.083680
    36  H    0.081567
    37  H    0.080920
    38  H    0.080522
    39  H    0.080165
    40  H    0.080129
    41  H    0.079985
    42  H    0.079997
    43  H    0.079903
    44  H    0.079946
    45  H    0.079860
    46  H    0.079930
    47  H    0.079838
    48  H    0.079934
    49  H    0.079835
    50  H    0.079947
    51  H    0.079848
    52  H    0.079966
    53  H    0.079878
    54  H    0.079990
    55  H    0.079928
    56  H    0.080024
    57  H    0.080009
    58  H    0.080088
    59  H    0.080163
    60  H    0.080247
    61  H    0.080569
    62  H    0.080984
    63  H    0.081618
    64  H    0.083732
    65  H    0.095538
    66  H    0.095392
 Sum of Mulliken charges =  -0.00000
 Mulliken charges with hydrogens summed into heavy atoms:
               1
     1  C   -0.061151
     2  C    0.050115
     3  C    0.003678
     4  C    0.004239
     5  C   -0.000322
     6  C    0.001255
     7  C    0.000167
     8  C    0.000414
     9  C    0.000133
    10  C    0.000191
    11  C    0.000134
    12  C    0.000066
    13  C    0.000167
    14  C   -0.000008
    15  C    0.000216
    16  C   -0.000046
    17  C    0.000270
    18  C   -0.000049
    19  C    0.000325
    20  C   -0.000022
    21  C    0.000381
    22  C    0.000030
    23  C    0.000460
    24  C    0.000108
    25  C    0.000621
    26  C    0.000203
    27  C    0.001399
    28  C   -0.000248
    29  C    0.004329
    30  C    0.003768
    31  C    0.050162
    32  C   -0.060985
 Electronic spatial extent (au):  <R**2>=         106055.4845
 Charge=             -0.0000 electrons
 Dipole moment (field-independent basis, Debye):
    X=             -0.0684    Y=              0.0074    Z=              0.0003  Tot=              0.0688
 Quadrupole moment (field-independent basis, Debye-Ang):
   XX=           -188.1397   YY=           -167.3963   ZZ=           -208.1808
   XY=             -2.4962   XZ=             -0.0089   YZ=              0.0264
 Traceless Quadrupole moment (field-independent basis, Debye-Ang):
   XX=             -0.2341   YY=             20.5093   ZZ=            -20.2752
   XY=             -2.4962   XZ=             -0.0089   YZ=              0.0264
 Octapole moment (field-independent basis, Debye-Ang**2):
  XXX=            -16.0895  YYY=              0.1278  ZZZ=             -0.0049  XYY=              0.4865
  XXY=              3.9265  XXZ=              0.2766  XZZ=             -0.0546  YZZ=              0.0318
  YYZ=             -0.0005  XYZ=              0.1372
 Hexadecapole moment (field-independent basis, Debye-Ang**3):
 XXXX=        -144146.3721 YYYY=           -545.8646 ZZZZ=           -215.9138 XXXY=           -972.2180
 XXXZ=             -4.8652 YYYX=             -0.4941 YYYZ=              0.0526 ZZZX=              0.0257
 ZZZY=              0.0230 XXYY=         -22037.7481 XXZZ=         -27301.7984 YYZZ=           -142.8596
 XXYZ=              2.8394 YYXZ=              0.0008 ZZXY=             -1.8713
 N-N= 2.031679521727D+03 E-N=-6.931058660977D+03  KE= 1.227442885412D+03
 Calling FoFJK, ICntrl=      2127 FMM=T ISym2X=0 I1Cent= 0 IOpClX= 0 NMat=1 NMatS=1 NMatT=0.
 ***** Axes restored to original set *****
 -------------------------------------------------------------------
 Center     Atomic                   Forces (Hartrees/Bohr)
 Number     Number              X              Y              Z
 -------------------------------------------------------------------
      1        6          -0.008398161    0.004080426   -0.000192887
      2        6           0.010720909   -0.022505995    0.001285948
      3        6          -0.021227710    0.023816243   -0.001298880
      4        6           0.024687725   -0.025867220    0.001400135
      5        6          -0.026802640    0.025043605   -0.001336355
      6        6           0.027615770   -0.025685846    0.001368852
      7        6          -0.028335241    0.025370275   -0.001343632
      8        6           0.028633809   -0.025585882    0.001353304
      9        6          -0.028902573    0.025450498   -0.001341581
     10        6           0.029051127   -0.025522665    0.001343614
     11        6          -0.029160406    0.025444294   -0.001336928
     12        6           0.029264311   -0.025453091    0.001336037
     13        6          -0.029307893    0.025392327   -0.001332193
     14        6           0.029402541   -0.025367522    0.001330423
     15        6          -0.029414542    0.025310931   -0.001328922
     16        6           0.029509083   -0.025265520    0.001327207
     17        6          -0.029501026    0.025211952   -0.001327897
     18        6           0.029591427   -0.025153234    0.001326539
     19        6          -0.029565394    0.025107532   -0.001329013
     20        6           0.029637906   -0.025038280    0.001327614
     21        6          -0.029584744    0.025010978   -0.001331383
     22        6           0.029616205   -0.024926281    0.001328950
     23        6          -0.029503820    0.024937365   -0.001334149
     24        6           0.029451237   -0.024812534    0.001328748
     25        6          -0.029187145    0.024905964   -0.001337779
     26        6           0.028943502   -0.024663324    0.001325156
     27        6          -0.028237790    0.024968472   -0.001347308
     28        6           0.027437615   -0.024330998    0.001313143
     29        6          -0.025352770    0.025197040   -0.001374742
     30        6           0.021847357   -0.023234200    0.001275004
     31        6          -0.011315016    0.022203481   -0.001265750
     32        6           0.008493046   -0.003848695    0.000187001
     33        1          -0.002746419   -0.003533121    0.000229523
     34        1          -0.002398185    0.000475749   -0.000013384
     35        1           0.005367886    0.000202012   -0.000045386
     36        1          -0.003414447    0.000568641   -0.000012308
     37        1           0.003197227   -0.000418067    0.000005411
     38        1          -0.003203038    0.000479960   -0.000007789
     39        1           0.003209564   -0.000434554    0.000006207
     40        1          -0.003214321    0.000459469   -0.000005958
     41        1           0.003211134   -0.000447781    0.000006651
     42        1          -0.003216406    0.000447442   -0.000004911
     43        1           0.003213153   -0.000449865    0.000006200
     44        1          -0.003218027    0.000437669   -0.000004436
     45        1           0.003214017   -0.000446418    0.000005323
     46        1          -0.003218094    0.000427728   -0.000004520
     47        1           0.003213271   -0.000438847    0.000004340
     48        1          -0.003216435    0.000416797   -0.000005070
     49        1           0.003210915   -0.000428639    0.000003583
     50        1          -0.003213269    0.000404863   -0.000005848
     51        1           0.003207512   -0.000417296    0.000003305
     52        1          -0.003209310    0.000392446   -0.000006515
     53        1           0.003204098   -0.000406551    0.000003633
     54        1          -0.003205650    0.000380150   -0.000006786
     55        1           0.003201865   -0.000397911    0.000004465
     56        1          -0.003203286    0.000368477   -0.000006542
     57        1           0.003201551   -0.000393129    0.000005596
     58        1          -0.003202766    0.000356779   -0.000005835
     59        1           0.003203841   -0.000394423    0.000006823
     60        1          -0.003204806    0.000339382   -0.000004569
     61        1           0.003199052   -0.000407727    0.000008354
     62        1          -0.003197230    0.000322829   -0.000003423
     63        1           0.003419243   -0.000485886    0.000012195
     64        1          -0.005355604   -0.000353977    0.000047741
     65        1           0.002406336   -0.000417954    0.000013198
     66        1           0.002649930    0.003601657   -0.000227546
 -------------------------------------------------------------------
 Cartesian Forces:  Max     0.029637906 RMS     0.014537577

 GradGradGradGradGradGradGradGradGradGradGradGradGradGradGradGradGradGrad
 Berny optimization.
 FormGI is forming the generalized inverse of G from B-inverse, IUseBI=4.
 Internal  Forces:  Max     0.022263716 RMS     0.008331718
 Search for a local minimum.
 Step number   1 out of a maximum of  295
 All quantities printed in internal units (Hartrees-Bohrs-Radians)
 Mixed Optimization -- RFO/linear search
 Second derivative matrix not updated -- first step.
 ITU=  0
     Eigenvalues ---    0.01059   0.01059   0.01059   0.01059   0.01059
     Eigenvalues ---    0.01059   0.01060   0.01060   0.01060   0.01060
     Eigenvalues ---    0.01060   0.01061   0.01061   0.01066   0.01066
     Eigenvalues ---    0.01978   0.01978   0.01978   0.01978   0.01978
     Eigenvalues ---    0.01978   0.01978   0.01978   0.01978   0.01978
     Eigenvalues ---    0.01978   0.01978   0.01978   0.01978   0.01979
     Eigenvalues ---    0.01979   0.01979   0.01979   0.01979   0.01979
     Eigenvalues ---    0.01979   0.01979   0.01979   0.01979   0.01979
     Eigenvalues ---    0.01979   0.01982   0.01982   0.01999   0.01999
     Eigenvalues ---    0.02887   0.02887   0.02887   0.02888   0.02888
     Eigenvalues ---    0.02888   0.02888   0.02888   0.02888   0.02888
     Eigenvalues ---    0.02888   0.02888   0.02888   0.02889   0.02949
     Eigenvalues ---    0.02949   0.02949   0.02949   0.16000   0.16000
     Eigenvalues ---    0.16000   0.16000   0.16000   0.16000   0.16000
     Eigenvalues ---    0.16000   0.16000   0.16000   0.16000   0.16000
     Eigenvalues ---    0.16000   0.16000   0.16000   0.16000   0.16000
     Eigenvalues ---    0.16000   0.16000   0.16000   0.16000   0.16000
     Eigenvalues ---    0.16000   0.16000   0.16000   0.16000   0.16000
     Eigenvalues ---    0.16000   0.16000   0.16000   0.16000   0.16000
     Eigenvalues ---    0.16000   0.16000   0.22000   0.22000   0.22000
     Eigenvalues ---    0.22000   0.22000   0.22000   0.22000   0.22000
     Eigenvalues ---    0.22000   0.22000   0.22000   0.22000   0.22000
     Eigenvalues ---    0.22000   0.22000   0.22000   0.22000   0.22000
     Eigenvalues ---    0.22000   0.22000   0.22000   0.22000   0.22000
     Eigenvalues ---    0.22000   0.22000   0.22000   0.22000   0.22000
     Eigenvalues ---    0.22000   0.22000   0.34820   0.34820   0.34821
     Eigenvalues ---    0.34821   0.34821   0.34822   0.34824   0.34826
     Eigenvalues ---    0.34827   0.34829   0.34830   0.34831   0.34831
     Eigenvalues ---    0.34880   0.34883   0.35077   0.35077   0.35077
     Eigenvalues ---    0.35077   0.35078   0.35078   0.35078   0.35078
     Eigenvalues ---    0.35078   0.35079   0.35079   0.35079   0.35079
     Eigenvalues ---    0.35079   0.35080   0.35081   0.35082   0.35083
     Eigenvalues ---    0.35083   0.35083   0.35083   0.35084   0.35084
     Eigenvalues ---    0.35084   0.35084   0.35085   0.35085   0.35085
     Eigenvalues ---    0.35191   0.35192   0.35271   0.35272   0.35371
     Eigenvalues ---    0.35372   0.57290   0.57290   0.57290   0.57292
     Eigenvalues ---    0.57295   0.57299   0.57302   0.57303   0.57303
     Eigenvalues ---    0.57305   0.57306   0.57306   0.57307   0.57310
     Eigenvalues ---    0.58339   0.58343
 RFO step:  Lambda=-5.32998475D-02 EMin= 1.05932137D-02
 Linear search not attempted -- first point.
 Maximum step size (   0.300) exceeded in Quadratic search.
    -- Step size scaled by   0.746
 Iteration  1 RMS(Cart)=  0.08870011 RMS(Int)=  0.00027451
 Iteration  2 RMS(Cart)=  0.00138405 RMS(Int)=  0.00000010
 Iteration  3 RMS(Cart)=  0.00000017 RMS(Int)=  0.00000009
 Variable       Old X    -DE/DX   Delta X   Delta X   Delta X     New X
                                 (Linear)    (Quad)   (Total)
    R1        2.52276   0.01191   0.00000   0.01395   0.01395   2.53671
    R2        2.05077   0.00017   0.00000   0.00032   0.00032   2.05108
    R3        2.05235  -0.00019   0.00000  -0.00035  -0.00035   2.05200
    R4        2.79171  -0.01416   0.00000  -0.02625  -0.02625   2.76545
    R5        2.05366   0.00063   0.00000   0.00115   0.00115   2.05481
    R6        2.53134   0.01879   0.00000   0.02237   0.02237   2.55372
    R7        2.05546  -0.00026   0.00000  -0.00048  -0.00048   2.05499
    R8        2.79266  -0.01790   0.00000  -0.03324  -0.03324   2.75942
    R9        2.05548  -0.00013   0.00000  -0.00024  -0.00024   2.05523
   R10        2.53142   0.02103   0.00000   0.02504   0.02504   2.55646
   R11        2.05542  -0.00019   0.00000  -0.00035  -0.00035   2.05506
   R12        2.79266  -0.01890   0.00000  -0.03511  -0.03511   2.75755
   R13        2.05546  -0.00015   0.00000  -0.00027  -0.00027   2.05519
   R14        2.53139   0.02180   0.00000   0.02596   0.02596   2.55735
   R15        2.05541  -0.00017   0.00000  -0.00032  -0.00032   2.05509
   R16        2.79267  -0.01925   0.00000  -0.03575  -0.03575   2.75692
   R17        2.05547  -0.00016   0.00000  -0.00030  -0.00030   2.05517
   R18        2.53138   0.02209   0.00000   0.02630   0.02630   2.55768
   R19        2.05540  -0.00016   0.00000  -0.00030  -0.00030   2.05510
   R20        2.79268  -0.01938   0.00000  -0.03600  -0.03600   2.75668
   R21        2.05548  -0.00017   0.00000  -0.00031  -0.00031   2.05517
   R22        2.53137   0.02221   0.00000   0.02645   0.02645   2.55782
   R23        2.05539  -0.00016   0.00000  -0.00029  -0.00029   2.05509
   R24        2.79267  -0.01944   0.00000  -0.03611  -0.03611   2.75657
   R25        2.05549  -0.00017   0.00000  -0.00032  -0.00032   2.05517
   R26        2.53138   0.02226   0.00000   0.02650   0.02650   2.55788
   R27        2.05538  -0.00016   0.00000  -0.00029  -0.00029   2.05509
   R28        2.79266  -0.01946   0.00000  -0.03614  -0.03614   2.75651
   R29        2.05549  -0.00017   0.00000  -0.00032  -0.00032   2.05517
   R30        2.53141   0.02226   0.00000   0.02651   0.02651   2.55791
   R31        2.05538  -0.00016   0.00000  -0.00029  -0.00029   2.05509
   R32        2.79262  -0.01946   0.00000  -0.03614  -0.03614   2.75648
   R33        2.05550  -0.00017   0.00000  -0.00032  -0.00032   2.05518
   R34        2.53144   0.02225   0.00000   0.02649   0.02649   2.55793
   R35        2.05538  -0.00016   0.00000  -0.00029  -0.00029   2.05509
   R36        2.79258  -0.01945   0.00000  -0.03611  -0.03611   2.75647
   R37        2.05550  -0.00017   0.00000  -0.00032  -0.00032   2.05517
   R38        2.53147   0.02221   0.00000   0.02645   0.02645   2.55792
   R39        2.05538  -0.00016   0.00000  -0.00029  -0.00029   2.05509
   R40        2.79254  -0.01942   0.00000  -0.03605  -0.03605   2.75648
   R41        2.05549  -0.00018   0.00000  -0.00032  -0.00032   2.05517
   R42        2.53150   0.02215   0.00000   0.02637   0.02637   2.55788
   R43        2.05538  -0.00016   0.00000  -0.00029  -0.00029   2.05509
   R44        2.79251  -0.01935   0.00000  -0.03594  -0.03594   2.75657
   R45        2.05549  -0.00018   0.00000  -0.00033  -0.00033   2.05516
   R46        2.53152   0.02202   0.00000   0.02623   0.02623   2.55775
   R47        2.05539  -0.00015   0.00000  -0.00028  -0.00028   2.05511
   R48        2.79250  -0.01922   0.00000  -0.03568  -0.03568   2.75682
   R49        2.05548  -0.00018   0.00000  -0.00033  -0.00033   2.05515
   R50        2.53152   0.02174   0.00000   0.02589   0.02589   2.55741
   R51        2.05540  -0.00015   0.00000  -0.00027  -0.00027   2.05512
   R52        2.79252  -0.01888   0.00000  -0.03506  -0.03506   2.75746
   R53        2.05547  -0.00019   0.00000  -0.00035  -0.00035   2.05513
   R54        2.53151   0.02098   0.00000   0.02499   0.02499   2.55650
   R55        2.05540  -0.00013   0.00000  -0.00025  -0.00025   2.05516
   R56        2.79257  -0.01788   0.00000  -0.03321  -0.03321   2.75936
   R57        2.05546  -0.00020   0.00000  -0.00038  -0.00038   2.05509
   R58        2.53141   0.01876   0.00000   0.02233   0.02233   2.55374
   R59        2.05544  -0.00012   0.00000  -0.00022  -0.00022   2.05522
   R60        2.79166  -0.01415   0.00000  -0.02624  -0.02624   2.76542
   R61        2.05549  -0.00027   0.00000  -0.00049  -0.00049   2.05500
   R62        2.52279   0.01189   0.00000   0.01393   0.01393   2.53672
   R63        2.05364   0.00063   0.00000   0.00117   0.00117   2.05480
   R64        2.05237  -0.00020   0.00000  -0.00037  -0.00037   2.05201
   R65        2.05076   0.00018   0.00000   0.00032   0.00032   2.05108
    A1        2.09384   0.00445   0.00000   0.01557   0.01557   2.10941
    A2        2.11473   0.00027   0.00000   0.00096   0.00096   2.11569
    A3        2.07461  -0.00473   0.00000  -0.01653  -0.01653   2.05808
    A4        2.11400   0.01185   0.00000   0.03234   0.03234   2.14634
    A5        2.07621  -0.00045   0.00000   0.00299   0.00299   2.07920
    A6        2.09297  -0.01140   0.00000  -0.03532  -0.03532   2.05765
    A7        2.11040   0.01218   0.00000   0.03322   0.03322   2.14363
    A8        2.08150  -0.00964   0.00000  -0.02902  -0.02902   2.05248
    A9        2.09129  -0.00254   0.00000  -0.00421  -0.00421   2.08708
   A10        2.11100   0.01270   0.00000   0.03466   0.03466   2.14566
   A11        2.09036  -0.00304   0.00000  -0.00575  -0.00575   2.08460
   A12        2.08183  -0.00966   0.00000  -0.02891  -0.02891   2.05292
   A13        2.11064   0.01246   0.00000   0.03399   0.03399   2.14463
   A14        2.08189  -0.00955   0.00000  -0.02861  -0.02861   2.05328
   A15        2.09066  -0.00290   0.00000  -0.00538  -0.00538   2.08528
   A16        2.11115   0.01262   0.00000   0.03442   0.03442   2.14557
   A17        2.09043  -0.00298   0.00000  -0.00559  -0.00559   2.08485
   A18        2.08161  -0.00963   0.00000  -0.02884  -0.02884   2.05277
   A19        2.11041   0.01260   0.00000   0.03438   0.03438   2.14479
   A20        2.08203  -0.00963   0.00000  -0.02884  -0.02884   2.05319
   A21        2.09074  -0.00297   0.00000  -0.00554  -0.00554   2.08520
   A22        2.11140   0.01257   0.00000   0.03430   0.03430   2.14569
   A23        2.09032  -0.00296   0.00000  -0.00551  -0.00551   2.08481
   A24        2.08147  -0.00961   0.00000  -0.02878  -0.02878   2.05269
   A25        2.11012   0.01268   0.00000   0.03461   0.03461   2.14473
   A26        2.08221  -0.00967   0.00000  -0.02896  -0.02896   2.05325
   A27        2.09086  -0.00301   0.00000  -0.00565  -0.00565   2.08521
   A28        2.11171   0.01252   0.00000   0.03416   0.03416   2.14587
   A29        2.09018  -0.00293   0.00000  -0.00544  -0.00544   2.08474
   A30        2.08129  -0.00959   0.00000  -0.02872  -0.02872   2.05257
   A31        2.10978   0.01275   0.00000   0.03479   0.03479   2.14457
   A32        2.08240  -0.00971   0.00000  -0.02905  -0.02905   2.05335
   A33        2.09100  -0.00304   0.00000  -0.00574  -0.00574   2.08526
   A34        2.11206   0.01247   0.00000   0.03402   0.03402   2.14608
   A35        2.09003  -0.00290   0.00000  -0.00536  -0.00536   2.08466
   A36        2.08109  -0.00956   0.00000  -0.02865  -0.02865   2.05244
   A37        2.10944   0.01281   0.00000   0.03496   0.03496   2.14439
   A38        2.08259  -0.00974   0.00000  -0.02913  -0.02913   2.05346
   A39        2.09115  -0.00307   0.00000  -0.00583  -0.00583   2.08533
   A40        2.11239   0.01242   0.00000   0.03388   0.03388   2.14626
   A41        2.08990  -0.00288   0.00000  -0.00530  -0.00530   2.08460
   A42        2.08090  -0.00954   0.00000  -0.02858  -0.02858   2.05232
   A43        2.10916   0.01286   0.00000   0.03508   0.03508   2.14424
   A44        2.08274  -0.00976   0.00000  -0.02918  -0.02918   2.05356
   A45        2.09129  -0.00310   0.00000  -0.00590  -0.00590   2.08539
   A46        2.11261   0.01238   0.00000   0.03377   0.03377   2.14639
   A47        2.08982  -0.00286   0.00000  -0.00526  -0.00526   2.08456
   A48        2.08075  -0.00951   0.00000  -0.02851  -0.02851   2.05224
   A49        2.10901   0.01288   0.00000   0.03515   0.03515   2.14416
   A50        2.08280  -0.00976   0.00000  -0.02920  -0.02920   2.05361
   A51        2.09137  -0.00312   0.00000  -0.00595  -0.00595   2.08542
   A52        2.11268   0.01236   0.00000   0.03373   0.03373   2.14641
   A53        2.08981  -0.00286   0.00000  -0.00526  -0.00526   2.08455
   A54        2.08069  -0.00950   0.00000  -0.02847  -0.02847   2.05222
   A55        2.10905   0.01288   0.00000   0.03514   0.03514   2.14419
   A56        2.08276  -0.00976   0.00000  -0.02917  -0.02917   2.05359
   A57        2.09138  -0.00312   0.00000  -0.00597  -0.00597   2.08541
   A58        2.11256   0.01237   0.00000   0.03375   0.03375   2.14631
   A59        2.08989  -0.00287   0.00000  -0.00529  -0.00529   2.08460
   A60        2.08074  -0.00950   0.00000  -0.02846  -0.02846   2.05228
   A61        2.10926   0.01285   0.00000   0.03506   0.03506   2.14432
   A62        2.08262  -0.00974   0.00000  -0.02911  -0.02911   2.05350
   A63        2.09130  -0.00311   0.00000  -0.00594  -0.00594   2.08536
   A64        2.11227   0.01240   0.00000   0.03383   0.03383   2.14610
   A65        2.09003  -0.00289   0.00000  -0.00534  -0.00534   2.08469
   A66        2.08089  -0.00951   0.00000  -0.02849  -0.02849   2.05240
   A67        2.10962   0.01280   0.00000   0.03493   0.03493   2.14454
   A68        2.08240  -0.00971   0.00000  -0.02903  -0.02903   2.05337
   A69        2.09116  -0.00309   0.00000  -0.00589  -0.00589   2.08527
   A70        2.11188   0.01243   0.00000   0.03392   0.03392   2.14580
   A71        2.09020  -0.00291   0.00000  -0.00539  -0.00539   2.08481
   A72        2.08111  -0.00953   0.00000  -0.02853  -0.02853   2.05257
   A73        2.11003   0.01275   0.00000   0.03478   0.03478   2.14480
   A74        2.08217  -0.00968   0.00000  -0.02896  -0.02896   2.05321
   A75        2.09099  -0.00306   0.00000  -0.00582  -0.00582   2.08517
   A76        2.11148   0.01245   0.00000   0.03397   0.03397   2.14544
   A77        2.09037  -0.00291   0.00000  -0.00540  -0.00540   2.08496
   A78        2.08134  -0.00954   0.00000  -0.02856  -0.02856   2.05278
   A79        2.11040   0.01270   0.00000   0.03467   0.03467   2.14507
   A80        2.08196  -0.00966   0.00000  -0.02890  -0.02890   2.05306
   A81        2.09082  -0.00304   0.00000  -0.00576  -0.00576   2.08506
   A82        2.11116   0.01238   0.00000   0.03378   0.03378   2.14494
   A83        2.09050  -0.00288   0.00000  -0.00533  -0.00533   2.08517
   A84        2.08153  -0.00950   0.00000  -0.02846  -0.02846   2.05307
   A85        2.11070   0.01273   0.00000   0.03474   0.03474   2.14543
   A86        2.08196  -0.00967   0.00000  -0.02891  -0.02891   2.05305
   A87        2.09053  -0.00307   0.00000  -0.00583  -0.00583   2.08470
   A88        2.11057   0.01215   0.00000   0.03316   0.03316   2.14373
   A89        2.09125  -0.00254   0.00000  -0.00421  -0.00421   2.08705
   A90        2.08136  -0.00961   0.00000  -0.02895  -0.02895   2.05241
   A91        2.11394   0.01185   0.00000   0.03233   0.03233   2.14627
   A92        2.09298  -0.01140   0.00000  -0.03530  -0.03530   2.05768
   A93        2.07626  -0.00045   0.00000   0.00297   0.00297   2.07924
   A94        2.11474   0.00027   0.00000   0.00095   0.00095   2.11570
   A95        2.09387   0.00445   0.00000   0.01556   0.01556   2.10943
   A96        2.07458  -0.00472   0.00000  -0.01651  -0.01651   2.05806
    D1       -3.14158  -0.00000   0.00000  -0.00000  -0.00000  -3.14158
    D2       -0.00000   0.00000   0.00000   0.00000   0.00000  -0.00000
    D3        0.00000   0.00000   0.00000   0.00000   0.00000   0.00000
    D4        3.14158   0.00000   0.00000   0.00000   0.00000   3.14159
    D5        3.14154   0.00000   0.00000   0.00001   0.00001   3.14155
    D6       -0.00002   0.00000   0.00000   0.00000   0.00000  -0.00002
    D7       -0.00004   0.00000   0.00000   0.00000   0.00000  -0.00003
    D8        3.14158  -0.00000   0.00000  -0.00000  -0.00000   3.14158
    D9       -3.14154  -0.00000   0.00000  -0.00001  -0.00001  -3.14155
   D10        0.00000   0.00000   0.00000   0.00000   0.00000   0.00001
   D11        0.00002  -0.00000   0.00000  -0.00000  -0.00000   0.00002
   D12        3.14157   0.00000   0.00000   0.00001   0.00001   3.14158
   D13        3.14146   0.00000   0.00000   0.00002   0.00002   3.14148
   D14       -0.00007   0.00000   0.00000   0.00000   0.00000  -0.00007
   D15       -0.00009   0.00000   0.00000   0.00001   0.00001  -0.00008
   D16        3.14157  -0.00000   0.00000  -0.00001  -0.00001   3.14156
   D17       -3.14150  -0.00000   0.00000  -0.00002  -0.00002  -3.14152
   D18        0.00002  -0.00000   0.00000  -0.00000  -0.00000   0.00002
   D19        0.00003  -0.00000   0.00000  -0.00000  -0.00000   0.00003
   D20        3.14155   0.00000   0.00000   0.00002   0.00002   3.14156
   D21        3.14140   0.00000   0.00000   0.00003   0.00003   3.14143
   D22       -0.00011   0.00000   0.00000   0.00001   0.00001  -0.00010
   D23       -0.00012   0.00000   0.00000   0.00001   0.00001  -0.00011
   D24        3.14155  -0.00000   0.00000  -0.00001  -0.00001   3.14155
   D25       -3.14147  -0.00000   0.00000  -0.00002  -0.00002  -3.14150
   D26        0.00003  -0.00000   0.00000  -0.00000  -0.00000   0.00003
   D27        0.00003  -0.00000   0.00000  -0.00000  -0.00000   0.00003
   D28        3.14154   0.00000   0.00000   0.00002   0.00002   3.14156
   D29        3.14138   0.00000   0.00000   0.00003   0.00003   3.14141
[...]
 .00000052,-0.00000097,0.00001247,-0.00000080,0.00000155,-0.00001026,0.
 00000060,-0.00000084,0.00001349,-0.00000080,0.00000145,-0.00001117,0.0
 0000071,-0.00000049,0.00001495,-0.00000087,0.00000129,-0.00001230,0.00
 000077,-0.00000011,0.00001683,-0.00000098,0.00000111,-0.00001380,0.000
 00085,0.00000040,0.00001920,-0.00000114,0.00000090,-0.00001579,0.00000
 097,0.00000110,0.00002227,-0.00000132,0.00000050,-0.00001852,0.0000011
 3,0.00000231,0.00002626,-0.00000158,-0.00000039,-0.00002239,0.00000134
 ,0.00000458,0.00003167,-0.00000191,-0.00000236,-0.00002827,0.00000169,
 0.00000928,0.00003936,-0.00000241,-0.00000724,-0.00003824,0.00000234,0
 .00002094,0.00005100,-0.00000342,-0.00001979,-0.00006055,0.00000309,0.
 00004571,0.00007390,-0.00000378,-0.00001246,-0.00008658,0.00000395,0.0
 0042545,0.00055153,-0.00004777,-0.00181120,0.00085404,-0.00013922,-0.0
 0360355,-0.01680288,0.00121063,-0.03130641,-0.32153147,0.01697203,0.00
 001040,-0.00975215,0.00089711,0.00000138,-0.00000008,0.00000006,-0.000
 00031,0.00000016,0.00000006,-0.00000019,-0.00000183,0.00000019,-0.0000
 0005,-0.00000020,0.00000008,0.,-0.00000202,0.00000018,-0.00000006,-0.0
 0000040,0.00000009,0.00000004,-0.00000224,0.00000017,-0.00000004,-0.00
 000049,0.00000005,0.00000008,-0.00000249,0.00000012,-0.00000005,-0.000
 00059,0.,0.00000010,-0.00000285,0.00000013,-0.00000006,-0.00000076,0.0
 0000001,0.00000013,-0.00000331,0.00000017,-0.00000008,-0.00000096,0.00
 000003,0.00000018,-0.00000387,0.00000021,-0.00000009,-0.00000118,0.000
 00005,0.00000024,-0.00000456,0.00000025,-0.00000010,-0.00000143,0.0000
 0007,0.00000033,-0.00000543,0.00000031,-0.00000007,-0.00000170,0.00000
 010,0.00000045,-0.00000654,0.00000038,0.00000004,-0.00000191,0.0000001
 3,0.00000059,-0.00000796,0.00000049,0.00000051,-0.00000185,0.00000016,
 0.00000052,-0.00000964,0.00000061,0.00000261,-0.00000059,0.00000024,-0
 .00000197,-0.00001171,0.00000106,0.00003857,0.00000486,0.00000015,-0.0
 0025453,0.00009942,0.00000210,0.00104104,0.00068086,-0.00003390,0.0025
 9921,-0.00059445,0.00024001,0.03453467,0.34447849,-0.00000039,0.000000
 31,-0.00000037,0.00000011,-0.00000065,-0.00000007,-0.00000020,0.000000
 56,-0.00000012,0.00000011,-0.00000072,-0.00000009,-0.00000002,0.000000
 57,-0.00000015,0.00000006,-0.00000077,-0.00000010,-0.00000011,0.000000
 62,-0.00000010,0.00000005,-0.00000079,0.,-0.00000007,0.00000067,-0.000
 00006,0.,-0.00000088,0.,-0.00000007,0.00000072,-0.00000008,0.,-0.00000
 101,-0.00000001,-0.00000005,0.00000083,-0.00000015,-0.00000003,-0.0000
 0117,-0.00000004,-0.00000005,0.00000094,-0.00000022,-0.00000008,-0.000
 00135,-0.00000011,-0.00000002,0.00000109,-0.00000034,-0.00000017,-0.00
 000157,-0.00000019,0.00000005,0.00000131,-0.00000052,-0.00000032,-0.00
 000193,-0.00000050,0.00000020,0.00000162,-0.00000109,-0.00000062,-0.00
 000237,-0.00000023,0.00000051,0.00000221,-0.00000077,-0.00000145,-0.00
 000329,-0.00000414,0.00000132,0.00000289,-0.00001149,-0.00000303,-0.00
 000342,0.00001560,0.00000094,0.00000450,-0.00002128,-0.00002627,-0.000
 04467,-0.00019883,0.00008880,-0.00015872,-0.00163956,0.00020707,0.0010
 2869,0.00295603,0.00199744,0.01696376,-0.04274725,0.00003781,0.0010900
 0,0.00514288,-0.00000006,0.,0.00000013,0.00000002,0.,0.00000016,0.0000
 0001,0.00000009,0.00000013,0.,0.,0.00000013,0.,0.00000017,0.00000010,0
 .,0.00000004,0.00000013,0.,0.00000011,0.00000011,0.,0.00000005,0.00000
 007,-0.00000001,0.00000015,0.00000003,0.,0.00000003,0.00000002,-0.0000
 0001,0.00000016,0.00000002,0.,0.00000005,0.00000005,0.,0.00000020,0.00
 000006,0.,0.00000006,0.00000009,-0.00000001,0.00000024,0.00000010,0.,0
 .00000008,0.00000016,-0.00000001,0.00000028,0.00000017,0.,0.00000011,0
 .00000026,-0.00000002,0.00000035,0.00000029,0.,0.00000012,0.00000043,-
 0.00000002,0.00000043,0.00000049,0.,0.00000018,0.00000085,-0.00000003,
 0.00000054,0.00000091,-0.00000001,0.00000024,0.00000153,-0.00000003,0.
 00000069,0.00000116,-0.00000012,0.00000030,0.00000417,0.00000011,0.000
 00104,0.00000538,-0.00000194,0.00000042,0.00001068,0.00001565,0.000001
 99,0.00010762,-0.00005937,-0.00002224,0.00022133,-0.00011011,0.0002411
 0,0.00365419,-0.00229570,-0.01923229,0.02847304,0.00000118,-0.00000078
 ,0.00000002,-0.00000046,0.00000173,-0.00000011,0.00000039,-0.00000152,
 0.00000008,-0.00000021,0.00000185,-0.00000012,0.00000027,-0.00000149,0
 .00000008,-0.00000013,0.00000193,-0.00000012,0.00000022,-0.00000154,0.
 00000009,-0.00000025,0.00000214,-0.00000013,0.00000037,-0.00000169,0.0
 0000011,-0.00000027,0.00000231,-0.00000013,0.00000045,-0.00000178,0.00
 000011,-0.00000037,0.00000253,-0.00000015,0.00000058,-0.00000191,0.000
 00011,-0.00000050,0.00000279,-0.00000016,0.00000077,-0.00000207,0.0000
 0012,-0.00000072,0.00000312,-0.00000018,0.00000108,-0.00000226,0.00000
 013,-0.00000107,0.00000349,-0.00000020,0.00000156,-0.00000248,0.000000
 14,-0.00000166,0.00000391,-0.00000021,0.00000235,-0.00000271,0.0000001
 5,-0.00000263,0.00000428,-0.00000027,0.00000361,-0.00000293,0.00000016
 ,-0.00000376,0.00000446,-0.00000010,0.00000587,-0.00000271,0.00000008,
 -0.00000473,0.00000241,-0.00000075,0.00002576,0.00000075,0.00000002,0.
 00003610,0.00007536,-0.00000280,-0.00013573,0.00020320,-0.00001181,0.0
 0178787,-0.00182847,0.00005439,-0.00000959,-0.03082755,0.00187745,-0.0
 6532954,-0.03917193,0.00254373,0.00000017,0.,0.,-0.00000004,0.00000003
 ,0.,-0.00000003,-0.00000028,0.00000003,-0.00000001,-0.00000003,0.00000
 001,-0.00000001,-0.00000034,0.00000003,-0.00000001,-0.00000006,0.00000
 001,0.,-0.00000038,0.00000003,-0.00000002,-0.00000009,0.,0.,-0.0000004
 0,0.00000002,-0.00000002,-0.00000013,0.,0.,-0.00000044,0.00000002,-0.0
 0000002,-0.00000015,0.,0.,-0.00000052,0.00000003,-0.00000002,-0.000000
 19,0.,0.,-0.00000059,0.00000003,-0.00000002,-0.00000023,0.00000001,0.,
 -0.00000068,0.00000004,-0.00000002,-0.00000027,0.00000001,0.,-0.000000
 76,0.00000004,0.,-0.00000032,0.00000002,-0.00000003,-0.00000084,0.0000
 0005,0.00000005,-0.00000034,0.00000002,-0.00000010,-0.00000086,0.00000
 005,0.00000017,-0.00000024,0.00000002,-0.00000039,-0.00000061,0.000000
 05,0.00000128,0.00000035,-0.00000009,-0.00000320,0.00000090,0.,0.00001
 033,0.00000309,-0.00000015,-0.00005036,0.00003326,-0.00000166,0.000129
 91,0.00023520,-0.00001284,-0.00023309,0.00094758,-0.00005366,-0.004647
 27,-0.00163595,0.00019249,0.06192844,-0.00000051,0.00000037,-0.0000001
 0,0.00000042,-0.00000103,0.00000003,-0.00000032,0.00000073,-0.00000006
 ,0.00000022,-0.00000100,0.00000003,-0.00000033,0.00000072,-0.00000007,
 0.00000044,-0.00000116,0.00000004,-0.00000076,0.00000077,-0.00000005,0
 .00000051,-0.00000112,0.00000007,-0.00000083,0.00000070,-0.00000002,0.
 00000097,-0.00000131,0.00000007,-0.00000132,0.00000075,-0.00000002,0.0
 0000149,-0.00000154,0.00000009,-0.00000211,0.00000082,-0.00000003,0.00
 000246,-0.00000186,0.00000009,-0.00000339,0.00000089,-0.00000002,0.000
 00403,-0.00000229,0.00000012,-0.00000547,0.00000094,-0.00000002,0.0000
 0665,-0.00000295,0.00000011,-0.00000907,0.00000094,-0.00000002,0.00001
 125,-0.00000399,0.00000023,-0.00001556,0.00000076,0.,0.00001977,-0.000
 00582,-0.00000012,-0.00002822,0.00000018,0.00000016,0.00003691,-0.0000
 0932,0.00000175,-0.00005755,-0.00000114,-0.00000012,0.00007385,-0.0000
 2244,-0.00000536,-0.00013098,-0.00000290,0.00000321,0.00011921,-0.0000
 5723,0.00002193,-0.00034914,0.00042898,-0.00002793,0.00221727,0.000976
 47,-0.00051346,-0.00069399,-0.00991260,0.00088063,-0.04261442,-0.33071
 099,0.01810295,-0.00000021,0.,0.00000003,0.00000001,0.00000004,0.00000
 003,-0.00000001,0.00000021,0.00000002,-0.00000001,0.00000006,0.0000000
 3,0.,0.00000023,0.00000002,0.00000001,0.00000006,0.00000003,0.00000003
 ,0.00000025,0.,0.00000005,0.00000009,0.,0.00000004,0.00000029,-0.00000
 002,0.00000005,0.00000010,-0.00000002,0.00000002,0.00000034,-0.0000000
 3,0.00000006,0.00000018,-0.00000002,0.00000001,0.00000038,-0.00000003,
 0.00000007,0.00000023,-0.00000002,0.,0.00000046,-0.00000003,0.00000008
 ,0.00000029,-0.00000002,0.,0.00000056,-0.00000003,0.00000011,0.0000003
 9,-0.00000002,-0.00000001,0.00000071,-0.00000004,0.00000016,0.00000056
 ,-0.00000002,-0.00000005,0.00000096,-0.00000004,0.00000027,0.00000084,
 -0.00000004,-0.00000013,0.00000138,-0.00000003,0.00000057,0.00000140,0
 .00000005,-0.00000034,0.00000223,-0.00000003,0.00000160,0.00000258,-0.
 00000072,-0.00000095,0.00000467,-0.00000001,0.00000502,0.00000417,0.00
 000069,-0.00001494,0.00000803,-0.00000018,0.00022114,-0.00001364,0.000
 01980,-0.00097378,0.00054523,-0.00000934,-0.00193358,0.00085671,0.0006
 1823,0.04918382,0.34995751,0.00000004,-0.00000001,-0.00000037,-0.00000
 005,0.00000005,-0.00000013,-0.00000005,-0.00000004,-0.00000009,0.00000
 003,0.00000003,-0.00000015,0.00000008,-0.00000004,-0.00000012,-0.00000
 003,0.00000004,-0.00000016,0.00000003,-0.00000004,-0.00000007,-0.00000
 004,0.00000007,-0.00000005,0.00000006,-0.00000004,-0.00000002,-0.00000
 008,0.00000008,-0.00000006,0.00000007,-0.00000006,-0.00000005,-0.00000
 009,0.00000009,-0.00000008,0.00000013,-0.00000005,-0.00000010,-0.00000
 014,0.00000009,-0.00000015,0.00000019,-0.00000005,-0.00000017,-0.00000
 023,0.00000011,-0.00000015,0.00000031,-0.00000007,-0.00000029,-0.00000
 040,0.00000014,-0.00000058,0.00000053,-0.00000007,-0.00000036,-0.00000
 066,0.00000026,0.00000051,0.00000092,-0.00000011,-0.00000101,-0.000001
 20,-0.00000003,-0.00000598,0.00000166,-0.00000005,-0.00000034,-0.00000
 209,0.00000195,0.00002346,0.00000339,-0.00000051,-0.00000906,-0.000005
 04,-0.00000491,-0.00010405,0.00000790,0.00000246,0.00003756,-0.0000054
 2,0.00002218,0.00031921,0.00002139,-0.00003119,-0.00006964,-0.00018826
 ,-0.00048905,-0.00733014,0.00007009,0.00106269,0.00463593,0.00275016,0
 .01808219,-0.03428258,0.00000003,0.,0.00000014,0.,0.,0.00000017,0.,-0.
 00000002,0.00000015,0.,-0.00000001,0.00000014,0.,0.00000003,0.00000013
 ,0.,0.00000001,0.00000014,0.,-0.00000003,0.00000013,0.,0.00000001,0.00
 000009,0.,-0.00000002,0.00000004,0.,0.,0.00000003,0.,-0.00000002,0.000
 00004,0.,0.,0.00000006,0.,-0.00000002,0.00000008,0.,0.,0.00000010,0.,-
 0.00000002,0.00000013,0.,0.,0.00000017,0.,-0.00000002,0.00000021,0.,0.
 ,0.00000024,0.,-0.00000002,0.00000035,0.,-0.00000001,0.00000048,0.,-0.
 00000002,0.00000057,-0.00000001,-0.00000001,0.00000047,0.00000002,0.,0
 .00000110,-0.00000001,0.00000010,0.00000252,0.00000003,0.00000001,0.00
 000188,-0.00000016,-0.00000069,-0.00000899,0.00000011,-0.00000004,0.00
 000423,-0.00000027,0.00000065,0.00001597,0.00000122,-0.00000047,0.0000
 0327,-0.00001201,0.00001968,0.00033725,0.00006157,-0.00002096,0.000291
 90,0.00021034,0.00061647,0.01093072,-0.00319289,-0.01998399,0.02294659
 ,-0.00000597,0.00000388,-0.00000025,0.00000303,-0.00000904,0.00000051,
 -0.00000259,0.00000813,-0.00000049,0.00000112,-0.00000955,0.00000056,-
 0.00000119,0.00000788,-0.00000048,0.00000043,-0.00001027,0.00000060,-0
 .00000109,0.00000823,-0.00000049,0.00000021,-0.00001107,0.00000067,-0.
 00000102,0.00000877,-0.00000051,0.00000054,-0.00001233,0.00000074,-0.0
 0000146,0.00000960,-0.00000056,0.00000073,-0.00001383,0.00000083,-0.00
 000189,0.00001071,-0.00000062,0.00000093,-0.00001572,0.00000095,-0.000
 00236,0.00001214,-0.00000070,0.00000115,-0.00001810,0.00000109,-0.0000
 0298,0.00001398,-0.00000082,0.00000152,-0.00002118,0.00000127,-0.00000
 404,0.00001644,-0.00000094,0.00000226,-0.00002528,0.00000149,-0.000005
 99,0.00001984,-0.00000115,0.00000359,-0.00003105,0.00000193,-0.0000100
 3,0.00002532,-0.00000147,0.00000429,-0.00004102,0.00000204,-0.00002204
 ,0.00003968,-0.00000220,-0.00001162,-0.00007514,0.00000643,-0.00009384
 ,0.00013722,-0.00000813,-0.00025365,-0.00036240,0.00001451,-0.00063540
 ,0.00132734,-0.00007440,-0.00260531,-0.00423113,0.00033967,-0.01879575
 ,0.02024419,-0.00107545,-0.23994508,0.13628756,-0.00691283,-0.00000101
 ,0.00000015,0.00000002,0.00000016,-0.00000028,0.00000004,0.00000015,0.
 00000139,-0.00000007,0.00000004,0.00000014,0.00000001,0.00000005,0.000
 00177,-0.00000009,0.00000010,0.00000034,0.,0.00000003,0.00000200,-0.00
 000011,0.00000016,0.00000049,-0.00000002,0.,0.00000221,-0.00000014,0.0
 0000014,0.00000061,-0.00000005,-0.00000005,0.00000252,-0.00000016,0.00
 000014,0.00000083,-0.00000005,-0.00000008,0.00000289,-0.00000018,0.000
 00015,0.00000102,-0.00000007,-0.00000011,0.00000337,-0.00000021,0.0000
 0018,0.00000126,-0.00000009,-0.00000015,0.00000395,-0.00000024,0.00000
 020,0.00000154,-0.00000010,-0.00000021,0.00000467,-0.00000029,0.000000
 24,0.00000187,-0.00000012,-0.00000031,0.00000561,-0.00000034,0.0000003
 0,0.00000228,-0.00000014,-0.00000043,0.00000687,-0.00000042,0.00000046
 ,0.00000278,-0.00000019,-0.00000057,0.00000862,-0.00000051,0.00000089,
 0.00000296,-0.00000005,0.00000077,0.00001163,-0.00000069,0.00000142,-0
 .00000092,-0.00000039,0.00001597,0.00001734,-0.00000097,0.00000528,-0.
 00007297,0.00000524,0.00013119,0.00012401,-0.00000993,0.00102741,-0.00
 009515,-0.00004236,0.00648749,-0.00507062,0.00027887,0.25471345,-0.000
 00012,-0.00000011,0.00000003,0.00000003,0.00000019,0.,-0.00000010,-0.0
 0000013,0.00000002,-0.00000006,0.00000013,0.,0.00000018,-0.00000010,0.
 00000001,-0.00000044,0.00000014,0.,0.00000070,-0.00000008,0.,-0.000000
 57,-0.00000006,0.,0.00000069,0.00000007,-0.00000002,-0.00000087,-0.000
 00013,0.,0.00000096,0.00000024,-0.00000003,-0.00000121,-0.00000026,0.0
 0000001,0.00000148,0.00000044,-0.00000005,-0.00000195,-0.00000042,0.00
 000003,0.00000240,0.00000072,-0.00000008,-0.00000321,-0.00000066,0.000
 00003,0.00000393,0.00000117,-0.00000011,-0.00000531,-0.00000100,0.0000
 0012,0.00000656,0.00000192,-0.00000020,-0.00000893,-0.00000158,-0.0000
 0007,0.00001118,0.00000331,-0.00000026,-0.00001559,-0.00000255,0.00000
 102,0.00001971,0.00000640,-0.00000078,-0.00002929,-0.00000543,-0.00000
 353,0.00003680,0.00001575,-0.00000062,-0.00006769,-0.00001858,0.000019
 98,0.00006242,0.00006606,-0.00000879,-0.00028201,-0.00013074,-0.000077
 34,-0.00017899,0.00080371,-0.00003331,-0.00211478,-0.00093411,0.000765
 30,-0.01267400,0.01069495,-0.00031452,0.14079644,-0.16324661,0.0070720
 8,0.00000016,-0.00000007,0.,0.00000002,0.00000009,-0.00000001,0.000000
 03,-0.00000005,0.,0.00000002,0.00000007,-0.00000001,-0.00000002,-0.000
 00002,0.,0.,0.00000007,-0.00000001,-0.00000004,0.00000002,0.,-0.000000
 03,0.00000003,0.,-0.00000006,0.00000005,0.,-0.00000002,0.00000004,0.,-
 0.00000005,0.00000005,0.,-0.00000002,0.,0.,-0.00000005,0.00000009,0.,-
 0.00000001,0.00000001,0.00000001,-0.00000007,0.00000013,0.,0.,0.000000
 02,0.00000001,-0.00000009,0.00000019,0.,0.,0.00000002,0.00000002,-0.00
 000013,0.00000029,0.,0.00000002,0.00000002,0.00000002,-0.00000021,0.00
 000046,0.,0.00000006,0.00000004,0.00000009,-0.00000038,0.00000079,0.,0
 .00000019,0.00000008,-0.00000014,-0.00000093,0.00000161,0.00000002,0.0
 0000063,0.00000037,0.00000134,-0.00000172,0.00000347,-0.00000017,0.000
 00014,-0.00000160,-0.00000437,-0.00000653,0.00001065,0.00000091,0.0000
 8515,-0.00000843,0.00000870,-0.00037768,0.00039524,-0.00003848,0.00023
 421,0.00122942,-0.00049089,0.02277802,-0.01205084,0.00072333,-0.148268
 96,0.16316506,0.00000006,0.,-0.00000035,-0.00000006,0.00000004,-0.0000
 0012,-0.00000005,-0.00000005,-0.00000008,0.00000004,0.00000003,-0.0000
 0013,0.00000006,-0.00000005,-0.00000011,0.00000002,0.00000004,-0.00000
 014,-0.00000005,-0.00000005,-0.00000006,0.00000003,0.00000009,-0.00000
 004,-0.00000003,-0.00000007,0.,0.00000003,0.00000011,-0.00000004,-0.00
 000005,-0.00000010,-0.00000003,0.00000006,0.00000011,-0.00000008,-0.00
 000007,-0.00000010,-0.00000007,0.00000011,0.00000012,-0.00000007,-0.00
 000013,-0.00000012,-0.00000014,0.00000019,0.00000013,-0.00000031,-0.00
 000023,-0.00000017,-0.00000014,0.00000031,0.00000024,0.00000044,-0.000
 00037,-0.00000025,-0.00000048,0.00000050,0.00000005,-0.00000348,-0.000
 00062,-0.00000032,0.00000030,0.00000099,0.00000113,0.00001286,-0.00000
 116,-0.00000084,-0.00000435,0.00000128,-0.00000344,-0.00006692,-0.0000
 0198,-0.00000068,0.00000923,0.00000598,0.00002004,0.00030641,-0.000003
 66,-0.00000922,-0.00007388,0.00000971,-0.00007689,-0.00144409,0.000016
 02,-0.00004238,0.00023245,0.00021277,0.00077803,0.01156422,0.00089897,
 -0.00051348,0.00419945,-0.00718328,0.00709926,-0.03153620,0.00000002,0
 .,0.00000013,0.,0.,0.00000016,0.,-0.00000001,0.00000014,0.,-0.00000001
 ,0.00000013,0.,0.00000004,0.00000012,0.,0.00000001,0.00000013,0.,-0.00
 000003,0.00000012,0.,0.,0.00000007,0.,-0.00000002,0.00000003,0.,0.,0.0
 0000002,0.,-0.00000003,0.00000003,0.,0.,0.00000004,0.,-0.00000002,0.00
 000006,0.,0.,0.00000008,0.,-0.00000002,0.00000010,0.,0.,0.00000012,0.,
 -0.00000003,0.00000016,0.,0.00000001,0.00000024,0.00000001,-0.00000003
 ,0.00000024,0.,-0.00000002,0.00000012,0.00000002,-0.00000004,0.0000004
 2,0.,0.00000007,0.00000134,0.00000003,-0.00000005,0.00000055,-0.000000
 02,-0.00000013,-0.00000230,0.00000007,-0.00000002,0.00000175,0.0000000
 9,0.00000133,0.00002264,0.00000011,-0.00000025,0.00000066,-0.00000047,
 -0.00000439,-0.00007397,0.00000045,0.00000079,0.00002526,-0.00000426,0
 .00000966,0.00014484,0.00002014,-0.00004148,-0.00028173,-0.00006213,-0
 .00048882,-0.00690136,-0.00139147,0.00089164,0.00225874,0.00748202,-0.
 00761932,0.02160688\\0.00001995,0.00000659,-0.00000051,0.00000979,-0.0
 0000677,0.00000035,-0.00002311,0.00000745,-0.00000031,0.00002268,-0.00
 000731,0.00000031,-0.00002934,0.00000762,-0.00000027,0.00002452,-0.000
 00370,0.00000008,-0.00002219,0.00000551,-0.00000019,0.00001535,-0.0000
 0302,0.00000010,-0.00000695,0.00000606,-0.00000031,0.00000037,-0.00000
 361,0.00000022,0.00000921,0.00000667,-0.00000045,-0.00001467,-0.000004
 52,0.00000036,0.00002237,0.00000694,-0.00000055,-0.00002589,-0.0000054
 5,0.00000047,0.00003013,0.00000683,-0.00000061,-0.00003124,-0.00000624
 ,0.00000054,0.00003128,0.00000637,-0.00000060,-0.00002991,-0.00000677,
 0.00000055,0.00002570,0.00000562,-0.00000053,-0.00002205,-0.00000695,0
 .00000051,0.00001426,0.00000468,-0.00000040,-0.00000884,-0.00000671,0.
 00000043,-0.00000089,0.00000373,-0.00000024,0.00000736,-0.00000611,0.0
 0000031,-0.00001584,0.00000310,-0.00000010,0.00002257,-0.00000557,0.00
 000019,-0.00002501,0.00000374,-0.00000008,0.00002957,-0.00000762,0.000
 00028,-0.00002293,0.00000729,-0.00000030,0.00002341,-0.00000746,0.0000
 0031,-0.00000986,0.00000677,-0.00000034,-0.00001988,-0.00000658,0.0000
 0052,-0.00000272,-0.00000325,0.00000021,-0.00000637,-0.00000153,0.0000
 0013,-0.00000408,0.00000146,-0.00000007,0.00000549,-0.00000365,0.00000
 018,-0.00000598,0.00000410,-0.00000021,0.00000570,-0.00000403,0.000000
 20,-0.00000667,0.00000271,-0.00000013,0.00000545,-0.00000331,0.0000001
 5,-0.00000518,0.00000237,-0.00000012,0.00000392,-0.00000316,0.00000015
 ,-0.00000332,0.00000236,-0.00000013,0.00000222,-0.00000307,0.00000016,
 -0.00000167,0.00000244,-0.00000014,0.00000087,-0.00000297,0.00000018,-
 0.00000050,0.00000251,-0.00000014,0.00000009,-0.00000285,0.00000019,0.
 00000003,0.00000259,-0.00000013,-0.00000003,-0.00000271,0.00000020,-0.
 00000010,0.00000270,-0.00000012,0.00000052,-0.00000258,0.00000019,-0.0
 0000088,0.00000284,-0.00000012,0.00000169,-0.00000247,0.00000017,-0.00
 000223,0.00000299,-0.00000013,0.00000335,-0.00000239,0.00000015,-0.000
 00392,0.00000314,-0.00000014,0.00000521,-0.00000240,0.00000012,-0.0000
 0544,0.00000334,-0.00000016,0.00000670,-0.00000274,0.00000012,-0.00000
 568,0.00000410,-0.00000021,0.00000600,-0.00000415,0.00000021,-0.000005
 49,0.00000369,-0.00000019,0.00000409,-0.00000146,0.00000006,0.00000634
 ,0.00000152,-0.00000013,0.00000270,0.00000328,-0.00000021\\\@


 THIS CURIOUS WORLD WHICH WE INHABIT IS MORE WONDERFUL THAN IT IS CONVENIENT;
 MORE BEAUTIFUL THAN IT IS USEFUL;
 IT IS MORE TO BE ADMIRED THAN IT IS TO BE USED.

                                                                 -- THOREAU
 Job cpu time:       0 days  3 hours 12 minutes 15.2 seconds.
 Elapsed time:       0 days  0 hours 48 minutes  4.3 seconds.
 File lengths (MBytes):  RWF=   2591 Int=      0 D2E=      0 Chk=     38 Scr=      1
 Normal termination of Gaussian 16 at Thu Nov  9 22:42:26 2023.
