 Entering Gaussian System, Link 0=g16
 Input=./com/18.com
 Output=./log/18.log
 Initial command:
 /home/shohei/gaussian/g16/l1.exe "/home/shohei/gaussian/scratch/Gau-16608.inp" -scrdir="/home/shohei/gaussian/scratch/"
 Entering Link 1 = /home/shohei/gaussian/g16/l1.exe PID=     16610.
  
 Copyright (c) 1988-2017, Gaussian, Inc.  All Rights Reserved.
  
 This is part of the Gaussian(R) 16 program.  It is based on
 the Gaussian(R) 09 system (copyright 2009, Gaussian, Inc.),
 the Gaussian(R) 03 system (copyright 2003, Gaussian, Inc.),
 the Gaussian(R) 98 system (copyright 1998, Gaussian, Inc.),
 the Gaussian(R) 94 system (copyright 1995, Gaussian, Inc.),
 the Gaussian 92(TM) system (copyright 1992, Gaussian, Inc.),
 the Gaussian 90(TM) system (copyright 1990, Gaussian, Inc.),
 the Gaussian 88(TM) system (copyright 1988, Gaussian, Inc.),
 the Gaussian 86(TM) system (copyright 1986, Carnegie Mellon
 University), and the Gaussian 82(TM) system (copyright 1983,
 Carnegie Mellon University). Gaussian is a federally registered
 trademark of Gaussian, Inc.
  
 This software contains proprietary and confidential information,
 including trade secrets, belonging to Gaussian, Inc.
  
 This software is provided under written license and may be
 used, copied, transmitted, or stored only in accord with that
 written license.
  
 The following legend is applicable only to US Government
 contracts under FAR:
  
                    RESTRICTED RIGHTS LEGEND
  
 Use, reproduction and disclosure by the US Government is
 subject to restrictions as set forth in subparagraphs (a)
 and (c) of the Commercial Computer Software - Restricted
 Rights clause in FAR 52.227-19.
  
 Gaussian, Inc.
 340 Quinnipiac St., Bldg. 40, Wallingford CT 06492
  
  
 ---------------------------------------------------------------
 Warning -- This program may not be used in any manner that
 competes with the business of Gaussian, Inc. or will provide
 assistance to any competitor of Gaussian, Inc.  The licensee
 of this program is prohibited from giving any competitor of
 Gaussian, Inc. access to this program.  By using this program,
 the user acknowledges that Gaussian, Inc. is engaged in the
 business of creating and licensing software in the field of
 computational chemistry and represents and warrants to the
 licensee that it is not a competitor of Gaussian, Inc. and that
 it will not use this program in any manner prohibited above.
 ---------------------------------------------------------------
  

 Cite this work as:
 Gaussian 16, Revision B.01,
 M. J. Frisch, G. W. Trucks, H. B. Schlegel, G. E. Scuseria, 
 M. A. Robb, J. R. Cheeseman, G. Scalmani, V. Barone, 
 G. A. Petersson, H. Nakatsuji, X. Li, M. Caricato, A. V. Marenich, 
 J. Bloino, B. G. Janesko, R. Gomperts, B. Mennucci, H. P. Hratchian, 
 J. V. Ortiz, A. F. Izmaylov, J. L. Sonnenberg, D. Williams-Young, 
 F. Ding, F. Lipparini, F. Egidi, J. Goings, B. Peng, A. Petrone, 
 T. Henderson, D. Ranasinghe, V. G. Zakrzewski, J. Gao, N. Rega, 
 G. Zheng, W. Liang, M. Hada, M. Ehara, K. Toyota, R. Fukuda, 
 J. Hasegawa, M. Ishida, T. Nakajima, Y. Honda, O. Kitao, H. Nakai, 
 T. Vreven, K. Throssell, J. A. Montgomery, Jr., J. E. Peralta, 
 F. Ogliaro, M. J. Bearpark, J. J. Heyd, E. N. Brothers, K. N. Kudin, 
 V. N. Staroverov, T. A. Keith, R. Kobayashi, J. Normand, 
 K. Raghavachari, A. P. Rendell, J. C. Burant, S. S. Iyengar, 
 J. Tomasi, M. Cossi, J. M. Millam, M. Klene, C. Adamo, R. Cammi, 
 J. W. Ochterski, R. L. Martin, K. Morokuma, O. Farkas, 
 J. B. Foresman, and D. J. Fox, Gaussian, Inc., Wallingford CT, 2016.
 
 ******************************************
 Gaussian 16:  EM64L-G16RevB.01 20-Dec-2017
                 9-Nov-2023 
 ******************************************
 %chk=checkpoint.chk
 %nprocshared=4
 Will use up to    4 processors via shared memory.
 ---------------------------
 # B3LYP/6-31G(d,p) OPT FREQ
 ---------------------------
 1/18=20,19=15,26=3,38=1/1,3;
 2/9=110,12=2,17=6,18=5,40=1/2;
 3/5=1,6=6,7=101,11=2,25=1,30=1,71=1,74=-5/1,2,3;
 4//1;
 5/5=2,38=5/2;
 6/7=2,8=2,9=2,10=2,28=1/1;
 7//1,2,3,16;
 1/18=20,19=15,26=3/3(2);
 2/9=110/2;
 99//99;
 2/9=110/2;
 3/5=1,6=6,7=101,11=2,25=1,30=1,71=1,74=-5/1,2,3;
 4/5=5,16=3,69=1/1;
 5/5=2,38=5/2;
 7//1,2,3,16;
 1/18=20,19=15,26=3/3(-5);
 2/9=110/2;
 6/7=2,8=2,9=2,10=2,19=2,28=1/1;
 99/9=1/99;
 -------
 18 poly
 -------
 Symbolic Z-matrix:
 Charge =  0 Multiplicity = 1
 C                    -2.37459   1.12693   0.01625 
 C                    -1.1599    1.67938  -0.0233 
 C                     0.05947   0.8464    0.01804 
 C                     1.27635   1.40495  -0.02198 
 C                     2.49644   0.57213   0.01933 
 C                     3.71336   1.1307   -0.02087 
 C                     4.93347   0.2979    0.02041 
 C                     6.15032   0.85657  -0.02005 
 C                     7.37061   0.02402   0.02118 
 C                     8.58725   0.58313  -0.01961 
 C                     9.80802  -0.24873   0.02158 
 C                     11.02419   0.31137  -0.01957 
 C                     12.24592  -0.51911   0.02158 
 C                     13.46124   0.04277  -0.01991 
 C                     14.68454  -0.78542   0.02122 
 C                     15.89856  -0.22077  -0.02056 
 C                     17.12413  -1.04559   0.02058 
 C                     18.33633  -0.47705  -0.02141 
 C                     19.56494  -1.29733   0.01976 
 C                     20.77477  -0.72375  -0.02236 
 C                     22.00714  -1.53836   0.01889 
 C                     23.21409  -0.95873  -0.02327 
 C                     24.4508  -1.76669   0.01809 
 C                     25.65447  -1.18022  -0.02401 
 C                     26.89589  -1.98087   0.01747 
 C                     28.09603  -1.38718  -0.02451 
 C                     29.34222  -2.18034   0.01711 
 C                     30.53885  -1.57954  -0.0247 
 C                     31.78953  -2.36554   0.01706 
 C                     32.98292  -1.75829  -0.02456 
 C                     34.23745  -2.53806   0.01733 
 C                     35.42816  -1.92551  -0.02413 
 C                     36.68566  -2.70045   0.01786 
 C                     37.87442  -2.08412  -0.02348 
 C                     39.13385  -2.85593   0.01858 
 C                     40.32142  -2.23757  -0.02272 
 H                    -3.25783   1.75668  -0.01523 
 H                    -2.50047   0.05007   0.0799 
 H                    -1.07558   2.76097  -0.08699 
 H                    -0.03745  -0.2351    0.08184 
 H                     1.37236   2.48652  -0.08581 
 H                     2.40027  -0.5094    0.08326 
 H                     3.80951   2.21224  -0.08484 
 H                     4.83739  -0.78363   0.08452 
 H                     6.2463    1.93812  -0.08422 
 H                     7.27487  -1.05751   0.08552 
 H                     8.68271   1.66471  -0.08402 
 H                     9.71309  -1.33031   0.08618 
 H                     11.11859   1.39303  -0.08423 
 H                     12.15245  -1.6008    0.08645 
 H                     13.55385   1.12458  -0.08481 
 H                     14.59337  -1.86729   0.08635 
 H                     15.98846   0.86127  -0.08569 
 H                     17.03624  -2.1277    0.08592 
 H                     18.42253   0.60529  -0.08673 
 H                     19.48133  -2.37976   0.08527 
 H                     20.85627   0.35894  -0.08781 
 H                     21.92875  -2.62117   0.08451 
 H                     23.29001   0.12438  -0.08879 
 H                     24.37839  -2.84991   0.08376 
 H                     25.72418  -0.0967   -0.08957 
 H                     26.82989  -3.0645    0.08314 
 H                     28.15928  -0.30327  -0.09005 
 H                     29.28265  -3.26435   0.08275 
 H                     30.59581  -0.49528  -0.0902 
 H                     31.73591  -3.44987   0.08264 
 H                     33.03426  -0.67375  -0.09002 
 H                     34.18886  -3.62264   0.08285 
 H                     35.47499  -0.84077  -0.08956 
 H                     36.64081  -3.7852    0.08335 
 H                     37.91814  -0.99926  -0.08891 
 H                     39.09158  -3.9408    0.08405 
 H                     40.36455  -1.15269  -0.08816 
 H                     41.26108  -2.73856   0.00239 
 

 GradGradGradGradGradGradGradGradGradGradGradGradGradGradGradGradGradGrad
 Berny optimization.
 Initialization pass.
                           ----------------------------
                           !    Initial Parameters    !
                           ! (Angstroms and Degrees)  !
 --------------------------                            --------------------------
 ! Name  Definition              Value          Derivative Info.                !
 --------------------------------------------------------------------------------
 ! R1    R(1,2)                  1.335          estimate D2E/DX2                !
 ! R2    R(1,37)                 1.0852         estimate D2E/DX2                !
 ! R3    R(1,38)                 1.0861         estimate D2E/DX2                !
 ! R4    R(2,3)                  1.4773         estimate D2E/DX2                !
 ! R5    R(2,39)                 1.0867         estimate D2E/DX2                !
 ! R6    R(3,4)                  1.3396         estimate D2E/DX2                !
 ! R7    R(3,40)                 1.0877         estimate D2E/DX2                !
 ! R8    R(4,5)                  1.4778         estimate D2E/DX2                !
 ! R9    R(4,41)                 1.0877         estimate D2E/DX2                !
 ! R10   R(5,6)                  1.3396         estimate D2E/DX2                !
 ! R11   R(5,42)                 1.0877         estimate D2E/DX2                !
 ! R12   R(6,7)                  1.4778         estimate D2E/DX2                !
 ! R13   R(6,43)                 1.0877         estimate D2E/DX2                !
 ! R14   R(7,8)                  1.3396         estimate D2E/DX2                !
 ! R15   R(7,44)                 1.0877         estimate D2E/DX2                !
 ! R16   R(8,9)                  1.4778         estimate D2E/DX2                !
 ! R17   R(8,45)                 1.0877         estimate D2E/DX2                !
 ! R18   R(9,10)                 1.3396         estimate D2E/DX2                !
 ! R19   R(9,46)                 1.0877         estimate D2E/DX2                !
 ! R20   R(10,11)                1.4778         estimate D2E/DX2                !
 ! R21   R(10,47)                1.0877         estimate D2E/DX2                !
 ! R22   R(11,12)                1.3396         estimate D2E/DX2                !
 ! R23   R(11,48)                1.0877         estimate D2E/DX2                !
 ! R24   R(12,13)                1.4778         estimate D2E/DX2                !
 ! R25   R(12,49)                1.0877         estimate D2E/DX2                !
 ! R26   R(13,14)                1.3396         estimate D2E/DX2                !
 ! R27   R(13,50)                1.0877         estimate D2E/DX2                !
 ! R28   R(14,15)                1.4778         estimate D2E/DX2                !
 ! R29   R(14,51)                1.0877         estimate D2E/DX2                !
 ! R30   R(15,16)                1.3396         estimate D2E/DX2                !
 ! R31   R(15,52)                1.0876         estimate D2E/DX2                !
 ! R32   R(16,17)                1.4779         estimate D2E/DX2                !
 ! R33   R(16,53)                1.0877         estimate D2E/DX2                !
 ! R34   R(17,18)                1.3396         estimate D2E/DX2                !
 ! R35   R(17,54)                1.0876         estimate D2E/DX2                !
 ! R36   R(18,19)                1.4779         estimate D2E/DX2                !
 ! R37   R(18,55)                1.0877         estimate D2E/DX2                !
 ! R38   R(19,20)                1.3396         estimate D2E/DX2                !
 ! R39   R(19,56)                1.0876         estimate D2E/DX2                !
 ! R40   R(20,21)                1.4778         estimate D2E/DX2                !
 ! R41   R(20,57)                1.0877         estimate D2E/DX2                !
 ! R42   R(21,22)                1.3396         estimate D2E/DX2                !
 ! R43   R(21,58)                1.0876         estimate D2E/DX2                !
 ! R44   R(22,23)                1.4778         estimate D2E/DX2                !
 ! R45   R(22,59)                1.0877         estimate D2E/DX2                !
 ! R46   R(23,24)                1.3396         estimate D2E/DX2                !
 ! R47   R(23,60)                1.0876         estimate D2E/DX2                !
 ! R48   R(24,25)                1.4778         estimate D2E/DX2                !
 ! R49   R(24,61)                1.0877         estimate D2E/DX2                !
 ! R50   R(25,26)                1.3396         estimate D2E/DX2                !
 ! R51   R(25,62)                1.0876         estimate D2E/DX2                !
 ! R52   R(26,27)                1.4778         estimate D2E/DX2                !
 ! R53   R(26,63)                1.0877         estimate D2E/DX2                !
 ! R54   R(27,28)                1.3396         estimate D2E/DX2                !
 ! R55   R(27,64)                1.0876         estimate D2E/DX2                !
 ! R56   R(28,29)                1.4777         estimate D2E/DX2                !
 ! R57   R(28,65)                1.0877         estimate D2E/DX2                !
 ! R58   R(29,30)                1.3397         estimate D2E/DX2                !
 ! R59   R(29,66)                1.0876         estimate D2E/DX2                !
 ! R60   R(30,31)                1.4777         estimate D2E/DX2                !
 ! R61   R(30,67)                1.0877         estimate D2E/DX2                !
 ! R62   R(31,32)                1.3397         estimate D2E/DX2                !
 ! R63   R(31,68)                1.0876         estimate D2E/DX2                !
 ! R64   R(32,33)                1.4777         estimate D2E/DX2                !
 ! R65   R(32,69)                1.0877         estimate D2E/DX2                !
 ! R66   R(33,34)                1.3397         estimate D2E/DX2                !
 ! R67   R(33,70)                1.0877         estimate D2E/DX2                !
 ! R68   R(34,35)                1.4777         estimate D2E/DX2                !
 ! R69   R(34,71)                1.0877         estimate D2E/DX2                !
 ! R70   R(35,36)                1.3396         estimate D2E/DX2                !
 ! R71   R(35,72)                1.0877         estimate D2E/DX2                !
 ! R72   R(36,73)                1.0877         estimate D2E/DX2                !
 ! R73   R(36,74)                1.0652         estimate D2E/DX2                !
 ! A1    A(2,1,37)             119.9692         estimate D2E/DX2                !
 ! A2    A(2,1,38)             121.1655         estimate D2E/DX2                !
 ! A3    A(37,1,38)            118.8653         estimate D2E/DX2                !
 ! A4    A(1,2,3)              121.1213         estimate D2E/DX2                !
 ! A5    A(1,2,39)             118.9594         estimate D2E/DX2                !
 ! A6    A(3,2,39)             119.9193         estimate D2E/DX2                !
 ! A7    A(2,3,4)              120.9222         estimate D2E/DX2                !
 ! A8    A(2,3,40)             119.2573         estimate D2E/DX2                !
 ! A9    A(4,3,40)             119.8205         estimate D2E/DX2                !
 ! A10   A(3,4,5)              120.9432         estimate D2E/DX2                !
 ! A11   A(3,4,41)             119.7725         estimate D2E/DX2                !
 ! A12   A(5,4,41)             119.2843         estimate D2E/DX2                !
 ! A13   A(4,5,6)              120.943          estimate D2E/DX2                !
 ! A14   A(4,5,42)             119.2755         estimate D2E/DX2                !
 ! A15   A(6,5,42)             119.7816         estimate D2E/DX2                !
 ! A16   A(5,6,7)              120.944          estimate D2E/DX2                !
 ! A17   A(5,6,43)             119.7803         estimate D2E/DX2                !
 ! A18   A(7,6,43)             119.2757         estimate D2E/DX2                !
 ! A19   A(6,7,8)              120.9381         estimate D2E/DX2                !
 ! A20   A(6,7,44)             119.2793         estimate D2E/DX2                !
 ! A21   A(8,7,44)             119.7826         estimate D2E/DX2                !
 ! A22   A(7,8,9)              120.9502         estimate D2E/DX2                !
 ! A23   A(7,8,45)             119.777          estimate D2E/DX2                !
 ! A24   A(9,8,45)             119.2728         estimate D2E/DX2                !
 ! A25   A(8,9,10)             120.9288         estimate D2E/DX2                !
 ! A26   A(8,9,46)             119.2853         estimate D2E/DX2                !
 ! A27   A(10,9,46)            119.7859         estimate D2E/DX2                !
 ! A28   A(9,10,11)            120.9618         estimate D2E/DX2                !
 ! A29   A(9,10,47)            119.7713         estimate D2E/DX2                !
 ! A30   A(11,10,47)           119.2669         estimate D2E/DX2                !
 ! A31   A(10,11,12)           120.9141         estimate D2E/DX2                !
 ! A32   A(10,11,48)           119.2945         estimate D2E/DX2                !
 ! A33   A(12,11,48)           119.7914         estimate D2E/DX2                !
 ! A34   A(11,12,13)           120.9791         estimate D2E/DX2                !
 ! A35   A(11,12,49)           119.7632         estimate D2E/DX2                !
 ! A36   A(13,12,49)           119.2577         estimate D2E/DX2                !
 ! A37   A(12,13,14)           120.8941         estimate D2E/DX2                !
 ! A38   A(12,13,50)           119.3066         estimate D2E/DX2                !
 ! A39   A(14,13,50)           119.7993         estimate D2E/DX2                !
 ! A40   A(13,14,15)           121.0014         estimate D2E/DX2                !
 ! A41   A(13,14,51)           119.7531         estimate D2E/DX2                !
 ! A42   A(15,14,51)           119.2455         estimate D2E/DX2                !
 ! A43   A(14,15,16)           120.8698         estimate D2E/DX2                !
 ! A44   A(14,15,52)           119.321          estimate D2E/DX2                !
 ! A45   A(16,15,52)           119.8092         estimate D2E/DX2                !
 ! A46   A(15,16,17)           121.0272         estimate D2E/DX2                !
 ! A47   A(15,16,53)           119.7418         estimate D2E/DX2                !
 ! A48   A(17,16,53)           119.231          estimate D2E/DX2                !
 ! A49   A(16,17,18)           120.843          estimate D2E/DX2                !
 ! A50   A(16,17,54)           119.3364         estimate D2E/DX2                !
 ! A51   A(18,17,54)           119.8205         estimate D2E/DX2                !
 ! A52   A(17,18,19)           121.0544         estimate D2E/DX2                !
 ! A53   A(17,18,55)           119.7302         estimate D2E/DX2                !
 ! A54   A(19,18,55)           119.2154         estimate D2E/DX2                !
 ! A55   A(18,19,20)           120.8165         estimate D2E/DX2                !
 ! A56   A(18,19,56)           119.3514         estimate D2E/DX2                !
 ! A57   A(20,19,56)           119.8321         estimate D2E/DX2                !
 ! A58   A(19,20,21)           121.0799         estimate D2E/DX2                !
 ! A59   A(19,20,57)           119.7198         estimate D2E/DX2                !
 ! A60   A(21,20,57)           119.2002         estimate D2E/DX2                !
 ! A61   A(20,21,22)           120.7933         estimate D2E/DX2                !
 ! A62   A(20,21,58)           119.3639         estimate D2E/DX2                !
 ! A63   A(22,21,58)           119.8427         estimate D2E/DX2                !
 ! A64   A(21,22,23)           121.1006         estimate D2E/DX2                !
 ! A65   A(21,22,59)           119.712          estimate D2E/DX2                !
 ! A66   A(23,22,59)           119.1874         estimate D2E/DX2                !
 ! A67   A(22,23,24)           120.7769         estimate D2E/DX2                !
 ! A68   A(22,23,60)           119.3722         estimate D2E/DX2                !
 ! A69   A(24,23,60)           119.8509         estimate D2E/DX2                !
 ! A70   A(23,24,25)           121.113          estimate D2E/DX2                !
 ! A71   A(23,24,61)           119.7081         estimate D2E/DX2                !
 ! A72   A(25,24,61)           119.179          estimate D2E/DX2                !
 ! A73   A(24,25,26)           120.7703         estimate D2E/DX2                !
 ! A74   A(24,25,62)           119.3746         estimate D2E/DX2                !
 ! A75   A(26,25,62)           119.8552         estimate D2E/DX2                !
 ! A76   A(25,26,27)           121.1142         estimate D2E/DX2                !
 ! A77   A(25,26,63)           119.7092         estimate D2E/DX2                !
 ! A78   A(27,26,63)           119.1766         estimate D2E/DX2                !
 ! A79   A(26,27,28)           120.7759         estimate D2E/DX2                !
 ! A80   A(26,27,64)           119.3697         estimate D2E/DX2                !
 ! A81   A(28,27,64)           119.8544         estimate D2E/DX2                !
 ! A82   A(27,28,29)           121.1024         estimate D2E/DX2                !
 ! A83   A(27,28,65)           119.716          estimate D2E/DX2                !
 ! A84   A(29,28,65)           119.1816         estimate D2E/DX2                !
 ! A85   A(28,29,30)           120.7944         estimate D2E/DX2                !
 ! A86   A(28,29,66)           119.3576         estimate D2E/DX2                !
 ! A87   A(30,29,66)           119.848          estimate D2E/DX2                !
 ! A88   A(29,30,31)           121.078          estimate D2E/DX2                !
 ! A89   A(29,30,67)           119.7279         estimate D2E/DX2                !
 ! A90   A(31,30,67)           119.1941         estimate D2E/DX2                !
 ! A91   A(30,31,32)           120.8246         estimate D2E/DX2                !
 ! A92   A(30,31,68)           119.3391         estimate D2E/DX2                !
 ! A93   A(32,31,68)           119.8363         estimate D2E/DX2                !
 ! A94   A(31,32,33)           121.0437         estimate D2E/DX2                !
 ! A95   A(31,32,69)           119.7434         estimate D2E/DX2                !
 ! A96   A(33,32,69)           119.2129         estimate D2E/DX2                !
 ! A97   A(32,33,34)           120.8624         estimate D2E/DX2                !
 ! A98   A(32,33,70)           119.3172         estimate D2E/DX2                !
 ! A99   A(34,33,70)           119.8204         estimate D2E/DX2                !
 ! A100  A(33,34,35)           121.0048         estimate D2E/DX2                !
 ! A101  A(33,34,71)           119.7608         estimate D2E/DX2                !
 ! A102  A(35,34,71)           119.2344         estimate D2E/DX2                !
 ! A103  A(34,35,36)           120.9044         estimate D2E/DX2                !
 ! A104  A(34,35,72)           119.3111         estimate D2E/DX2                !
 ! A105  A(36,35,72)           119.7844         estimate D2E/DX2                !
 ! A106  A(35,36,73)           119.83           estimate D2E/DX2                !
 ! A107  A(35,36,74)           124.349          estimate D2E/DX2                !
 ! A108  A(73,36,74)           115.821          estimate D2E/DX2                !
 ! D1    D(37,1,2,3)          -179.9998         estimate D2E/DX2                !
 ! D2    D(37,1,2,39)           -0.0002         estimate D2E/DX2                !
 ! D3    D(38,1,2,3)            -0.0003         estimate D2E/DX2                !
 ! D4    D(38,1,2,39)          179.9993         estimate D2E/DX2                !
 ! D5    D(1,2,3,4)            179.9955         estimate D2E/DX2                !
 ! D6    D(1,2,3,40)            -0.0032         estimate D2E/DX2                !
 ! D7    D(39,2,3,4)            -0.0041         estimate D2E/DX2                !
 ! D8    D(39,2,3,40)          179.9972         estimate D2E/DX2                !
 ! D9    D(2,3,4,5)           -179.9992         estimate D2E/DX2                !
 ! D10   D(2,3,4,41)            -0.0005         estimate D2E/DX2                !
 ! D11   D(40,3,4,5)            -0.0005         estimate D2E/DX2                !
 ! D12   D(40,3,4,41)          179.9982         estimate D2E/DX2                !
 ! D13   D(3,4,5,6)            179.9909         estimate D2E/DX2                !
 ! D14   D(3,4,5,42)            -0.007          estimate D2E/DX2                !
 ! D15   D(41,4,5,6)            -0.0079         estimate D2E/DX2                !
 ! D16   D(41,4,5,42)          179.9943         estimate D2E/DX2                !
 ! D17   D(4,5,6,7)           -179.9987         estimate D2E/DX2                !
 ! D18   D(4,5,6,43)            -0.0007         estimate D2E/DX2                !
 ! D19   D(42,5,6,7)            -0.0008         estimate D2E/DX2                !
 ! D20   D(42,5,6,43)          179.9971         estimate D2E/DX2                !
 ! D21   D(5,6,7,8)            179.987          estimate D2E/DX2                !
 ! D22   D(5,6,7,44)            -0.0104         estimate D2E/DX2                !
 ! D23   D(43,6,7,8)            -0.0109         estimate D2E/DX2                !
 ! D24   D(43,6,7,44)          179.9916         estimate D2E/DX2                !
 ! D25   D(6,7,8,9)           -179.9988         estimate D2E/DX2                !
 ! D26   D(6,7,8,45)            -0.001          estimate D2E/DX2                !
 ! D27   D(44,7,8,9)            -0.0014         estimate D2E/DX2                !
 ! D28   D(44,7,8,45)          179.9964         estimate D2E/DX2                !
 ! D29   D(7,8,9,10)           179.9849         estimate D2E/DX2                !
 ! D30   D(7,8,9,46)            -0.0128         estimate D2E/DX2                !
 ! D31   D(45,8,9,10)           -0.0129         estimate D2E/DX2                !
 ! D32   D(45,8,9,46)          179.9895         estimate D2E/DX2                !
 ! D33   D(8,9,10,11)         -179.9999         estimate D2E/DX2                !
 ! D34   D(8,9,10,47)           -0.0014         estimate D2E/DX2                !
 ! D35   D(46,9,10,11)          -0.0022         estimate D2E/DX2                !
 ! D36   D(46,9,10,47)         179.9962         estimate D2E/DX2                !
 ! D37   D(9,10,11,12)         179.9852         estimate D2E/DX2                !
 ! D38   D(9,10,11,48)          -0.0137         estimate D2E/DX2                !
 ! D39   D(47,10,11,12)         -0.0133         estimate D2E/DX2                !
 ! D40   D(47,10,11,48)        179.9879         estimate D2E/DX2                !
 ! D41   D(10,11,12,13)        179.9978         estimate D2E/DX2                !
 ! D42   D(10,11,12,49)         -0.0022         estimate D2E/DX2                !
 ! D43   D(48,11,12,13)         -0.0033         estimate D2E/DX2                !
 ! D44   D(48,11,12,49)        179.9967         estimate D2E/DX2                !
 ! D45   D(11,12,13,14)        179.988          estimate D2E/DX2                !
 ! D46   D(11,12,13,50)         -0.013          estimate D2E/DX2                !
 ! D47   D(49,12,13,14)         -0.012          estimate D2E/DX2                !
 ! D48   D(49,12,13,50)        179.9869         estimate D2E/DX2                !
 ! D49   D(12,13,14,15)        179.9943         estimate D2E/DX2                !
 ! D50   D(12,13,14,51)         -0.0032         estimate D2E/DX2                !
 ! D51   D(50,13,14,15)         -0.0047         estimate D2E/DX2                !
 ! D52   D(50,13,14,51)        179.9978         estimate D2E/DX2                !
 ! D53   D(13,14,15,16)        179.9932         estimate D2E/DX2                !
 ! D54   D(13,14,15,52)         -0.0108         estimate D2E/DX2                !
 ! D55   D(51,14,15,16)         -0.0093         estimate D2E/DX2                !
 ! D56   D(51,14,15,52)        179.9867         estimate D2E/DX2                !
 ! D57   D(14,15,16,17)        179.9898         estimate D2E/DX2                !
 ! D58   D(14,15,16,53)         -0.0045         estimate D2E/DX2                !
 ! D59   D(52,15,16,17)         -0.0062         estimate D2E/DX2                !
 ! D60   D(52,15,16,53)        179.9995         estimate D2E/DX2                !
 ! D61   D(15,16,17,18)       -179.9999         estimate D2E/DX2                !
 ! D62   D(15,16,17,54)         -0.0073         estimate D2E/DX2                !
 ! D63   D(53,16,17,18)         -0.0055         estimate D2E/DX2                !
 ! D64   D(53,16,17,54)        179.9871         estimate D2E/DX2                !
 ! D65   D(16,17,18,19)        179.985          estimate D2E/DX2                !
 ! D66   D(16,17,18,55)         -0.0059         estimate D2E/DX2                !
 ! D67   D(54,17,18,19)         -0.0076         estimate D2E/DX2                !
 ! D68   D(54,17,18,55)       -179.9985         estimate D2E/DX2                !
 ! D69   D(17,18,19,20)       -179.9921         estimate D2E/DX2                !
 ! D70   D(17,18,19,56)         -0.003          estimate D2E/DX2                !
 ! D71   D(55,18,19,20)         -0.0012         estimate D2E/DX2                !
 ! D72   D(55,18,19,56)        179.9879         estimate D2E/DX2                !
 ! D73   D(18,19,20,21)        179.9802         estimate D2E/DX2                !
 ! D74   D(18,19,20,57)         -0.0073         estimate D2E/DX2                !
 ! D75   D(56,19,20,21)         -0.0088         estimate D2E/DX2                !
 ! D76   D(56,19,20,57)       -179.9964         estimate D2E/DX2                !
 ! D77   D(19,20,21,22)       -179.9844         estimate D2E/DX2                !
 ! D78   D(19,20,21,58)          0.0015         estimate D2E/DX2                !
 ! D79   D(57,20,21,22)          0.0032         estimate D2E/DX2                !
 ! D80   D(57,20,21,58)        179.9891         estimate D2E/DX2                !
 ! D81   D(20,21,22,23)        179.9762         estimate D2E/DX2                !
 ! D82   D(20,21,22,59)         -0.0086         estimate D2E/DX2                !
 ! D83   D(58,21,22,23)         -0.0097         estimate D2E/DX2                !
 ! D84   D(58,21,22,59)       -179.9944         estimate D2E/DX2                !
 ! D85   D(21,22,23,24)       -179.9778         estimate D2E/DX2                !
 ! D86   D(21,22,23,60)          0.0057         estimate D2E/DX2                !
 ! D87   D(59,22,23,24)          0.007          estimate D2E/DX2                !
 ! D88   D(59,22,23,60)        179.9905         estimate D2E/DX2                !
 ! D89   D(22,23,24,25)        179.9734         estimate D2E/DX2                !
 ! D90   D(22,23,24,61)         -0.0095         estimate D2E/DX2                !
 ! D91   D(60,23,24,25)         -0.01           estimate D2E/DX2                !
 ! D92   D(60,23,24,61)       -179.9929         estimate D2E/DX2                !
 ! D93   D(23,24,25,26)       -179.973          estimate D2E/DX2                !
 ! D94   D(23,24,25,62)          0.0091         estimate D2E/DX2                !
 ! D95   D(61,24,25,26)          0.0099         estimate D2E/DX2                !
 ! D96   D(61,24,25,62)        179.9921         estimate D2E/DX2                !
 ! D97   D(24,25,26,27)        179.9723         estimate D2E/DX2                !
 ! D98   D(24,25,26,63)         -0.0099         estimate D2E/DX2                !
 ! D99   D(62,25,26,27)         -0.0098         estimate D2E/DX2                !
 ! D100  D(62,25,26,63)       -179.992          estimate D2E/DX2                !
 ! D101  D(25,26,27,28)       -179.971          estimate D2E/DX2                !
 ! D102  D(25,26,27,64)          0.0113         estimate D2E/DX2                !
 ! D103  D(63,26,27,28)          0.0113         estimate D2E/DX2                !
 ! D104  D(63,26,27,64)        179.9936         estimate D2E/DX2                !
 ! D105  D(26,27,28,29)        179.9733         estimate D2E/DX2                !
 ! D106  D(26,27,28,65)         -0.0098         estimate D2E/DX2                !
 ! D107  D(64,27,28,29)         -0.0089         estimate D2E/DX2                !
 ! D108  D(64,27,28,65)       -179.9919         estimate D2E/DX2                !
 ! D109  D(27,28,29,30)       -179.9721         estimate D2E/DX2                !
 ! D110  D(27,28,29,66)          0.0117         estimate D2E/DX2                !
 ! D111  D(65,28,29,30)          0.011          estimate D2E/DX2                !
 ! D112  D(65,28,29,66)        179.9949         estimate D2E/DX2                !
 ! D113  D(28,29,30,31)        179.9765         estimate D2E/DX2                !
 ! D114  D(28,29,30,67)         -0.009          estimate D2E/DX2                !
 ! D115  D(66,29,30,31)         -0.0073         estimate D2E/DX2                !
 ! D116  D(66,29,30,67)       -179.9927         estimate D2E/DX2                !
 ! D117  D(29,30,31,32)       -179.9766         estimate D2E/DX2                !
 ! D118  D(29,30,31,68)          0.0103         estimate D2E/DX2                !
 ! D119  D(67,30,31,32)          0.0089         estimate D2E/DX2                !
 ! D120  D(67,30,31,68)        179.9959         estimate D2E/DX2                !
 ! D121  D(30,31,32,33)        179.9817         estimate D2E/DX2                !
 ! D122  D(30,31,32,69)         -0.0075         estimate D2E/DX2                !
 ! D123  D(68,31,32,33)         -0.0052         estimate D2E/DX2                !
 ! D124  D(68,31,32,69)       -179.9943         estimate D2E/DX2                !
 ! D125  D(31,32,33,34)       -179.9836         estimate D2E/DX2                !
 ! D126  D(31,32,33,70)          0.0074         estimate D2E/DX2                !
 ! D127  D(69,32,33,34)          0.0056         estimate D2E/DX2                !
 ! D128  D(69,32,33,70)        179.9966         estimate D2E/DX2                !
 ! D129  D(32,33,34,35)        179.988          estimate D2E/DX2                !
 ! D130  D(32,33,34,71)         -0.0054         estimate D2E/DX2                !
 ! D131  D(70,33,34,35)         -0.003          estimate D2E/DX2                !
 ! D132  D(70,33,34,71)       -179.9964         estimate D2E/DX2                !
 ! D133  D(33,34,35,36)       -179.9915         estimate D2E/DX2                !
 ! D134  D(33,34,35,72)          0.0037         estimate D2E/DX2                !
 ! D135  D(71,34,35,36)          0.002          estimate D2E/DX2                !
 ! D136  D(71,34,35,72)        179.9972         estimate D2E/DX2                !
 ! D137  D(34,35,36,73)         -0.0031         estimate D2E/DX2                !
 ! D138  D(34,35,36,74)       -179.8845         estimate D2E/DX2                !
 ! D139  D(72,35,36,73)       -179.9983         estimate D2E/DX2                !
 ! D140  D(72,35,36,74)          0.1203         estimate D2E/DX2                !
 --------------------------------------------------------------------------------
 Trust Radius=3.00D-01 FncErr=1.00D-07 GrdErr=1.00D-06 EigMax=2.50D+02 EigMin=1.00D-04
 Number of steps in this run=    331 maximum allowed number of steps=    444.
 GradGradGradGradGradGradGradGradGradGradGradGradGradGradGradGradGradGrad

 Stoichiometry    C36H38
 Framework group  C1[X(C36H38)]
 Deg. of freedom   216
 Full point group                 C1      NOp   1
 Largest Abelian subgroup         C1      NOp   1
 Largest concise Abelian subgroup C1      NOp   1
                         Standard orientation:                         
 ---------------------------------------------------------------------
 Center     Atomic      Atomic             Coordinates (Angstroms)
 Number     Number       Type             X           Y           Z
 ---------------------------------------------------------------------
      1          6           0       21.419423    0.146551    0.006024
      2          6           0       20.262662   -0.519875    0.005255
      3          6           0       18.969734    0.194796    0.005403
      4          6           0       17.811359   -0.477932    0.004540
      5          6           0       16.517729    0.236507    0.004671
      6          6           0       15.359319   -0.436249    0.003624
      7          6           0       14.065676    0.278167    0.003726
      8          6           0       12.907343   -0.394703    0.002418
      9          6           0       11.613541    0.319446    0.002493
     10          6           0       10.455465   -0.353852    0.000883
     11          6           0        9.161240    0.359558    0.000954
     12          6           0        8.003731   -0.314699   -0.000954
     13          6           0        6.708687    0.397249   -0.000837
     14          6           0        5.552184   -0.278722   -0.002987
     15          6           0        4.255800    0.430806   -0.002749
     16          6           0        3.100856   -0.247817   -0.005039
     17          6           0        1.802523    0.458148   -0.004585
     18          6           0        0.649766   -0.224185   -0.006880
     19          6           0       -0.651162    0.476986   -0.006105
     20          6           0       -1.801081   -0.210129   -0.008251
     21          6           0       -3.105211    0.485047   -0.007054
     22          6           0       -4.251689   -0.207818   -0.008899
     23          6           0       -5.559513    0.480346   -0.007193
     24          6           0       -6.702071   -0.218996   -0.008608
     25          6           0       -8.013888    0.461471   -0.006330
     26          6           0       -9.152258   -0.244704   -0.007223
     27          6           0      -10.468109    0.427862   -0.004348
     28          6           0      -11.602307   -0.285034   -0.004679
     29          6           0      -12.921942    0.380006   -0.001226
     30          6           0      -14.052305   -0.338987   -0.001018
     31          6           0      -15.375192    0.319500    0.002945
     32          6           0      -16.502373   -0.404494    0.003605
     33          6           0      -17.827756    0.248924    0.007968
     34          6           0      -18.952643   -0.478636    0.008944
     35          6           0      -20.279650    0.171487    0.013568
     36          6           0      -21.403163   -0.557978    0.014708
     37          1           0       22.358453   -0.397433    0.005895
     38          1           0       21.442521    1.232367    0.006776
     39          1           0       20.281391   -1.606458    0.004502
     40          1           0       18.963555    1.282483    0.006207
     41          1           0       17.818449   -1.565611    0.003707
     42          1           0       16.510805    1.324167    0.005598
     43          1           0       15.366267   -1.523916    0.002649
     44          1           0       14.058661    1.365821    0.004839
     45          1           0       12.914464   -1.482371    0.001246
     46          1           0       11.606182    1.407091    0.003840
     47          1           0       10.463100   -1.441520   -0.000525
     48          1           0        9.153081    1.447191    0.002563
     49          1           0        8.012426   -1.402365   -0.002617
     50          1           0        6.699063    1.484861    0.001041
     51          1           0        5.562684   -1.366378   -0.004901
     52          1           0        4.243868    1.518386   -0.000617
     53          1           0        3.114070   -1.335451   -0.007179
     54          1           0        1.787310    1.545678   -0.002233
     55          1           0        0.666694   -1.311774   -0.009205
     56          1           0       -0.670669    1.564439   -0.003581
     57          1           0       -1.779440   -1.297642   -0.010714
     58          1           0       -3.129957    1.572388   -0.004412
     59          1           0       -4.224459   -1.295209   -0.011450
     60          1           0       -5.590247    1.567531   -0.004486
     61          1           0       -6.668623   -1.306216   -0.011199
     62          1           0       -8.051044    1.548456   -0.003607
     63          1           0       -9.112330   -1.331705   -0.009817
     64          1           0      -10.511697    1.514612   -0.001645
     65          1           0      -11.556089   -1.371782   -0.007252
     66          1           0      -12.971493    1.466507    0.001436
     67          1           0      -14.000473   -1.425476   -0.003564
     68          1           0      -15.429771    1.405770    0.005564
     69          1           0      -16.446030   -1.490751    0.001077
     70          1           0      -17.886073    1.335009    0.010557
     71          1           0      -18.893192   -1.564722    0.006411
     72          1           0      -20.340552    1.257439    0.016150
     73          1           0      -21.343122   -1.644023    0.012156
     74          1           0      -22.386130   -0.147670    0.016205
 ---------------------------------------------------------------------
 Rotational constants (GHZ):           3.8201740           0.0065677           0.0065564
 Standard basis: 6-31G(d,p) (6D, 7F)
 There are   730 symmetry adapted cartesian basis functions of A   symmetry.
 There are   730 symmetry adapted basis functions of A   symmetry.
   730 basis functions,  1274 primitive gaussians,   730 cartesian basis functions
   127 alpha electrons      127 beta electrons
       nuclear repulsion energy      2370.4220591470 Hartrees.
 NAtoms=   74 NActive=   74 NUniq=   74 SFac= 1.00D+00 NAtFMM=   60 NAOKFM=T Big=T
 Integral buffers will be    131072 words long.
 Raffenetti 2 integral format.
 Two-electron integral symmetry is turned on.
 One-electron integrals computed using PRISM.
 NBasis=   730 RedAO= T EigKep=  1.08D-03  NBF=   730
 NBsUse=   730 1.00D-06 EigRej= -1.00D+00 NBFU=   730
 ExpMin= 1.61D-01 ExpMax= 3.05D+03 ExpMxC= 4.57D+02 IAcc=3 IRadAn=         5 AccDes= 0.00D+00
 Harris functional with IExCor=  402 and IRadAn=       5 diagonalized for initial guess.
 HarFok:  IExCor=  402 AccDes= 0.00D+00 IRadAn=         5 IDoV= 1 UseB2=F ITyADJ=14
 ICtDFT=  3500011 ScaDFX=  1.000000  1.000000  1.000000  1.000000
 FoFCou: FMM=F IPFlag=           0 FMFlag=      100000 FMFlg1=        2001
         NFxFlg=           0 DoJE=T BraDBF=F KetDBF=T FulRan=T
         wScrn=  0.000000 ICntrl=       500 IOpCl=  0 I1Cent=   200000004 NGrid=           0
         NMat0=    1 NMatS0=      1 NMatT0=    0 NMatD0=    1 NMtDS0=    0 NMtDT0=    0
 Petite list used in FoFCou.
 Requested convergence on RMS density matrix=1.00D-08 within 128 cycles.
 Requested convergence on MAX density matrix=1.00D-06.
 Requested convergence on             energy=1.00D-06.
 No special actions if energy rises.
 Integral accuracy reduced to 1.0D-05 until final iterations.
 Initial convergence to 1.0D-05 achieved.  Increase integral accuracy.
 SCF Done:  E(RB3LYP) =  -1394.53005507     A.U. after   13 cycles
            NFock= 13  Conv=0.64D-08     -V/T= 2.0100

 **********************************************************************

            Population analysis using the SCF Density.

 **********************************************************************

 Orbital symmetries:
       Occupied  (A) (A) (A) (A) (A) (A) (A) (A) (A) (A) (A) (A)
                 (A) (A) (A) (A) (A) (A) (A) (A) (A) (A) (A) (A)
                 (A) (A) (A) (A) (A) (A) (A) (A) (A) (A) (A) (A)
                 (A) (A) (A) (A) (A) (A) (A) (A) (A) (A) (A) (A)
                 (A) (A) (A) (A) (A) (A) (A) (A) (A) (A) (A) (A)
                 (A) (A) (A) (A) (A) (A) (A) (A) (A) (A) (A) (A)
                 (A) (A) (A) (A) (A) (A) (A) (A) (A) (A) (A) (A)
                 (A) (A) (A) (A) (A) (A) (A) (A) (A) (A) (A) (A)
                 (A) (A) (A) (A) (A) (A) (A) (A) (A) (A) (A) (A)
                 (A) (A) (A) (A) (A) (A) (A) (A) (A) (A) (A) (A)
                 (A) (A) (A) (A) (A) (A) (A)
       Virtual   (A) (A) (A) (A) (A) (A) (A) (A) (A) (A) (A) (A)
                 (A) (A) (A) (A) (A) (A) (A) (A) (A) (A) (A) (A)
                 (A) (A) (A) (A) (A) (A) (A) (A) (A) (A) (A) (A)
                 (A) (A) (A) (A) (A) (A) (A) (A) (A) (A) (A) (A)
                 (A) (A) (A) (A) (A) (A) (A) (A) (A) (A) (A) (A)
                 (A) (A) (A) (A) (A) (A) (A) (A) (A) (A) (A) (A)
                 (A) (A) (A) (A) (A) (A) (A) (A) (A) (A) (A) (A)
                 (A) (A) (A) (A) (A) (A) (A) (A) (A) (A) (A) (A)
                 (A) (A) (A) (A) (A) (A) (A) (A) (A) (A) (A) (A)
                 (A) (A) (A) (A) (A) (A) (A) (A) (A) (A) (A) (A)
                 (A) (A) (A) (A) (A) (A) (A) (A) (A) (A) (A) (A)
                 (A) (A) (A) (A) (A) (A) (A) (A) (A) (A) (A) (A)
                 (A) (A) (A) (A) (A) (A) (A) (A) (A) (A) (A) (A)
                 (A) (A) (A) (A) (A) (A) (A) (A) (A) (A) (A) (A)
                 (A) (A) (A) (A) (A) (A) (A) (A) (A) (A) (A) (A)
                 (A) (A) (A) (A) (A) (A) (A) (A) (A) (A) (A) (A)
                 (A) (A) (A) (A) (A) (A) (A) (A) (A) (A) (A) (A)
                 (A) (A) (A) (A) (A) (A) (A) (A) (A) (A) (A) (A)
                 (A) (A) (A) (A) (A) (A) (A) (A) (A) (A) (A) (A)
                 (A) (A) (A) (A) (A) (A) (A) (A) (A) (A) (A) (A)
                 (A) (A) (A) (A) (A) (A) (A) (A) (A) (A) (A) (A)
                 (A) (A) (A) (A) (A) (A) (A) (A) (A) (A) (A) (A)
                 (A) (A) (A) (A) (A) (A) (A) (A) (A) (A) (A) (A)
                 (A) (A) (A) (A) (A) (A) (A) (A) (A) (A) (A) (A)
                 (A) (A) (A) (A) (A) (A) (A) (A) (A) (A) (A) (A)
                 (A) (A) (A) (A) (A) (A) (A) (A) (A) (A) (A) (A)
                 (A) (A) (A) (A) (A) (A) (A) (A) (A) (A) (A) (A)
                 (A) (A) (A) (A) (A) (A) (A) (A) (A) (A) (A) (A)
                 (A) (A) (A) (A) (A) (A) (A) (A) (A) (A) (A) (A)
                 (A) (A) (A) (A) (A) (A) (A) (A) (A) (A) (A) (A)
                 (A) (A) (A) (A) (A) (A) (A) (A) (A) (A) (A) (A)
                 (A) (A) (A) (A) (A) (A) (A) (A) (A) (A) (A) (A)
                 (A) (A) (A) (A) (A) (A) (A) (A) (A) (A) (A) (A)
                 (A) (A) (A) (A) (A) (A) (A) (A) (A) (A) (A) (A)
                 (A) (A) (A) (A) (A) (A) (A) (A) (A) (A) (A) (A)
                 (A) (A) (A) (A) (A) (A) (A) (A) (A) (A) (A) (A)
                 (A) (A) (A) (A) (A) (A) (A) (A) (A) (A) (A) (A)
                 (A) (A) (A) (A) (A) (A) (A) (A) (A) (A) (A) (A)
                 (A) (A) (A) (A) (A) (A) (A) (A) (A) (A) (A) (A)
                 (A) (A) (A) (A) (A) (A) (A) (A) (A) (A) (A) (A)
                 (A) (A) (A) (A) (A) (A) (A) (A) (A) (A) (A) (A)
                 (A) (A) (A) (A) (A) (A) (A) (A) (A) (A) (A) (A)
                 (A) (A) (A) (A) (A) (A) (A) (A) (A) (A) (A) (A)
                 (A) (A) (A) (A) (A) (A) (A) (A) (A) (A) (A) (A)
                 (A) (A) (A) (A) (A) (A) (A) (A) (A) (A) (A) (A)
                 (A) (A) (A) (A) (A) (A) (A) (A) (A) (A) (A) (A)
                 (A) (A) (A) (A) (A) (A) (A) (A) (A) (A) (A) (A)
                 (A) (A) (A) (A) (A) (A) (A) (A) (A) (A) (A) (A)
                 (A) (A) (A) (A) (A) (A) (A) (A) (A) (A) (A) (A)
                 (A) (A) (A) (A) (A) (A) (A) (A) (A) (A) (A) (A)
                 (A) (A) (A)
 The electronic state is 1-A.
 Alpha  occ. eigenvalues --  -10.19296 -10.19125 -10.19125 -10.19112 -10.19102
 Alpha  occ. eigenvalues --  -10.19092 -10.19091 -10.19081 -10.19081 -10.19074
 Alpha  occ. eigenvalues --  -10.19073 -10.19070 -10.19068 -10.19065 -10.19061
 Alpha  occ. eigenvalues --  -10.19056 -10.19050 -10.19044 -10.19027 -10.19016
 Alpha  occ. eigenvalues --  -10.19005 -10.18997 -10.18995 -10.18989 -10.18987
 Alpha  occ. eigenvalues --  -10.18984 -10.18981 -10.18977 -10.18976 -10.18973
 Alpha  occ. eigenvalues --  -10.18969 -10.18964 -10.18959 -10.18921 -10.17904
 Alpha  occ. eigenvalues --  -10.17845  -0.82945  -0.82804  -0.82552  -0.82200
 Alpha  occ. eigenvalues --   -0.81750  -0.81204  -0.80564  -0.79831  -0.79006
 Alpha  occ. eigenvalues --   -0.78094  -0.77097  -0.76020  -0.74870  -0.73660
 Alpha  occ. eigenvalues --   -0.72409  -0.71158  -0.69994  -0.69079  -0.63726
 Alpha  occ. eigenvalues --   -0.62710  -0.61314  -0.59750  -0.58136  -0.57068
 Alpha  occ. eigenvalues --   -0.56944  -0.56742  -0.56568  -0.56430  -0.56048
 Alpha  occ. eigenvalues --   -0.55651  -0.55209  -0.55156  -0.54650  -0.54386
 Alpha  occ. eigenvalues --   -0.54124  -0.54003  -0.48614  -0.48488  -0.48171
 Alpha  occ. eigenvalues --   -0.47723  -0.47363  -0.46781  -0.46104  -0.45851
 Alpha  occ. eigenvalues --   -0.44959  -0.44604  -0.44215  -0.42894  -0.42163
 Alpha  occ. eigenvalues --   -0.41581  -0.41158  -0.40645  -0.39858  -0.39801
 Alpha  occ. eigenvalues --   -0.39037  -0.38782  -0.38357  -0.38050  -0.37799
 Alpha  occ. eigenvalues --   -0.37624  -0.37430  -0.37362  -0.37329  -0.36974
 Alpha  occ. eigenvalues --   -0.36650  -0.36362  -0.36062  -0.35687  -0.35304
 Alpha  occ. eigenvalues --   -0.35177  -0.35118  -0.34790  -0.34523  -0.34332
 Alpha  occ. eigenvalues --   -0.33818  -0.33745  -0.33206  -0.33032  -0.32783
 Alpha  occ. eigenvalues --   -0.32194  -0.31233  -0.30149  -0.28947  -0.27629
 Alpha  occ. eigenvalues --   -0.26201  -0.24673  -0.23058  -0.21386  -0.19712
 Alpha  occ. eigenvalues --   -0.18154  -0.16941
 Alpha virt. eigenvalues --   -0.07580  -0.06340  -0.04652  -0.02785  -0.00879
 Alpha virt. eigenvalues --    0.00987   0.02756   0.04383   0.05831   0.07070
 Alpha virt. eigenvalues --    0.08079   0.08188   0.08414   0.08792   0.08850
 Alpha virt. eigenvalues --    0.09305   0.09391   0.09728   0.09900   0.09943
 Alpha virt. eigenvalues --    0.09949   0.09977   0.09980   0.10695   0.11552
 Alpha virt. eigenvalues --    0.12474   0.12666   0.13142   0.13505   0.13777
 Alpha virt. eigenvalues --    0.13820   0.14051   0.14058   0.14281   0.14417
 Alpha virt. eigenvalues --    0.14672   0.14721   0.14811   0.15122   0.15203
 Alpha virt. eigenvalues --    0.15445   0.15606   0.15790   0.15798   0.16085
 Alpha virt. eigenvalues --    0.16681   0.17174   0.17447   0.18332   0.19349
 Alpha virt. eigenvalues --    0.19601   0.19871   0.20443   0.20876   0.21214
 Alpha virt. eigenvalues --    0.21279   0.24839   0.25740   0.27111   0.28792
 Alpha virt. eigenvalues --    0.30398   0.30473   0.30677   0.31432   0.31606
 Alpha virt. eigenvalues --    0.31984   0.33272   0.33290   0.33796   0.34546
 Alpha virt. eigenvalues --    0.35068   0.35737   0.35774   0.36429   0.36671
 Alpha virt. eigenvalues --    0.36761   0.37100   0.37189   0.37658   0.38440
 Alpha virt. eigenvalues --    0.40097   0.41206   0.41321   0.41506   0.41871
 Alpha virt. eigenvalues --    0.42184   0.42318   0.42443   0.42736   0.44898
 Alpha virt. eigenvalues --    0.45324   0.47722   0.47798   0.50728   0.51322
 Alpha virt. eigenvalues --    0.51644   0.51770   0.51999   0.52328   0.52758
 Alpha virt. eigenvalues --    0.53186   0.53291   0.53929   0.54123   0.54667
 Alpha virt. eigenvalues --    0.55391   0.55504   0.56304   0.56430   0.56617
 Alpha virt. eigenvalues --    0.57095   0.57431   0.57488   0.57867   0.57959
 Alpha virt. eigenvalues --    0.58642   0.58709   0.58780   0.58916   0.58942
 Alpha virt. eigenvalues --    0.59066   0.59176   0.59183   0.59316   0.59576
 Alpha virt. eigenvalues --    0.59941   0.59943   0.60136   0.60633   0.60693
 Alpha virt. eigenvalues --    0.61024   0.61453   0.61455   0.61882   0.62361
 Alpha virt. eigenvalues --    0.62803   0.62858   0.63296   0.63990   0.64082
 Alpha virt. eigenvalues --    0.64083   0.65172   0.65176   0.65478   0.65884
 Alpha virt. eigenvalues --    0.65988   0.66281   0.66511   0.67401   0.67773
 Alpha virt. eigenvalues --    0.67822   0.68325   0.69056   0.69489   0.69841
 Alpha virt. eigenvalues --    0.69917   0.70425   0.72029   0.72363   0.73968
 Alpha virt. eigenvalues --    0.74205   0.75574   0.75687   0.76641   0.76668
 Alpha virt. eigenvalues --    0.78599   0.78664   0.78834   0.79151   0.79645
 Alpha virt. eigenvalues --    0.80324   0.81167   0.82123   0.83060   0.83665
 Alpha virt. eigenvalues --    0.84123   0.84490   0.84577   0.84720   0.84841
 Alpha virt. eigenvalues --    0.84954   0.85218   0.85520   0.85839   0.85896
 Alpha virt. eigenvalues --    0.86166   0.86450   0.86693   0.86801   0.87042
 Alpha virt. eigenvalues --    0.87094   0.87286   0.87493   0.87712   0.87848
 Alpha virt. eigenvalues --    0.87976   0.88097   0.88900   0.89489   0.89853
 Alpha virt. eigenvalues --    0.90037   0.91079   0.91124   0.91496   0.91576
 Alpha virt. eigenvalues --    0.92107   0.92427   0.92827   0.93632   0.93953
 Alpha virt. eigenvalues --    0.94852   0.96054   0.96426   0.98158   0.98887
 Alpha virt. eigenvalues --    0.99709   1.02437   1.02480   1.02493   1.03041
 Alpha virt. eigenvalues --    1.03099   1.03919   1.04040   1.04966   1.05198
 Alpha virt. eigenvalues --    1.05994   1.06020   1.06201   1.06588   1.06830
 Alpha virt. eigenvalues --    1.07699   1.08639   1.09050   1.09626   1.10012
 Alpha virt. eigenvalues --    1.10298   1.10922   1.12399   1.13375   1.13997
 Alpha virt. eigenvalues --    1.16169   1.16406   1.16689   1.18823   1.19056
 Alpha virt. eigenvalues --    1.21552   1.22162   1.24285   1.25205   1.27283
 Alpha virt. eigenvalues --    1.27566   1.29340   1.29421   1.29430   1.29756
 Alpha virt. eigenvalues --    1.29788   1.30291   1.30341   1.30422   1.30875
 Alpha virt. eigenvalues --    1.30949   1.30969   1.31339   1.31404   1.31486
 Alpha virt. eigenvalues --    1.31653   1.32114   1.32313   1.32485   1.32981
 Alpha virt. eigenvalues --    1.33089   1.33267   1.33591   1.33687   1.33746
 Alpha virt. eigenvalues --    1.34098   1.34491   1.34767   1.34941   1.35758
 Alpha virt. eigenvalues --    1.36144   1.36275   1.37005   1.37860   1.38808
 Alpha virt. eigenvalues --    1.39823   1.40891   1.41239   1.41998   1.43134
 Alpha virt. eigenvalues --    1.44286   1.45438   1.45985   1.46573   1.47669
 Alpha virt. eigenvalues --    1.48701   1.49597   1.49644   1.50112   1.50469
 Alpha virt. eigenvalues --    1.51149   1.51158   1.51650   1.51660   1.51980
 Alpha virt. eigenvalues --    1.52139   1.53106   1.53267   1.54616   1.54624
 Alpha virt. eigenvalues --    1.76388   1.76523   1.76567   1.76601   1.76630
 Alpha virt. eigenvalues --    1.76646   1.76695   1.76852   1.76870   1.77163
 Alpha virt. eigenvalues --    1.77258   1.77630   1.77724   1.78236   1.78254
 Alpha virt. eigenvalues --    1.78732   1.78739   1.82176   1.82818   1.83878
 Alpha virt. eigenvalues --    1.85310   1.86269   1.86679   1.87066   1.89088
 Alpha virt. eigenvalues --    1.91268   1.91310   1.91926   1.91993   1.92137
 Alpha virt. eigenvalues --    1.92539   1.92651   1.93068   1.93595   1.93662
 Alpha virt. eigenvalues --    1.93674   1.94136   1.94813   1.94903   1.95231
 Alpha virt. eigenvalues --    1.95935   1.96001   1.96073   1.96661   1.96882
 Alpha virt. eigenvalues --    1.98259   1.98321   1.98474   2.00808   2.03029
 Alpha virt. eigenvalues --    2.03173   2.04052   2.05105   2.05518   2.07011
 Alpha virt. eigenvalues --    2.07120   2.07749   2.07909   2.08722   2.08958
 Alpha virt. eigenvalues --    2.09241   2.09896   2.10184   2.11185   2.11272
 Alpha virt. eigenvalues --    2.11380   2.11966   2.13576   2.14271   2.15639
 Alpha virt. eigenvalues --    2.16808   2.16943   2.17469   2.17517   2.17823
 Alpha virt. eigenvalues --    2.18802   2.19041   2.19581   2.19672   2.19897
 Alpha virt. eigenvalues --    2.20810   2.21105   2.21761   2.22370   2.22859
 Alpha virt. eigenvalues --    2.23418   2.23673   2.23934   2.24133   2.24477
 Alpha virt. eigenvalues --    2.25009   2.26381   2.27611   2.27790   2.29238
 Alpha virt. eigenvalues --    2.30723   2.32187   2.32235   2.33744   2.35194
 Alpha virt. eigenvalues --    2.36479   2.37154   2.37452   2.38026   2.41612
 Alpha virt. eigenvalues --    2.41797   2.42206   2.44394   2.44403   2.44922
 Alpha virt. eigenvalues --    2.44939   2.45623   2.46469   2.46865   2.47450
 Alpha virt. eigenvalues --    2.48132   2.48436   2.48509   2.48817   2.49428
 Alpha virt. eigenvalues --    2.49588   2.49789   2.50384   2.50725   2.50764
 Alpha virt. eigenvalues --    2.51499   2.51603   2.51636   2.52128   2.52529
 Alpha virt. eigenvalues --    2.52847   2.52885   2.53058   2.53994   2.54073
 Alpha virt. eigenvalues --    2.54536   2.54833   2.55467   2.55602   2.55686
 Alpha virt. eigenvalues --    2.56405   2.57294   2.57679   2.58382   2.59007
 Alpha virt. eigenvalues --    2.59272   2.59709   2.59761   2.60401   2.61826
 Alpha virt. eigenvalues --    2.62408   2.62561   2.63181   2.63627   2.63801
 Alpha virt. eigenvalues --    2.64322   2.65599   2.65830   2.65989   2.66433
 Alpha virt. eigenvalues --    2.67243   2.67593   2.68605   2.68893   2.69343
 Alpha virt. eigenvalues --    2.69675   2.69900   2.70419   2.70575   2.70814
 Alpha virt. eigenvalues --    2.71074   2.71109   2.71163   2.71230   2.72206
 Alpha virt. eigenvalues --    2.72310   2.73276   2.74670   2.75812   2.76722
 Alpha virt. eigenvalues --    2.77108   2.78327   2.79823   2.80847   2.81875
 Alpha virt. eigenvalues --    2.83394   2.84393   2.85104   2.85643   2.87243
 Alpha virt. eigenvalues --    2.87569   2.87728   2.89347   2.90849   2.91084
 Alpha virt. eigenvalues --    2.91255   2.91492   2.91607   2.92147   2.92156
 Alpha virt. eigenvalues --    2.92278   2.92844   2.93313   2.93332   2.93668
 Alpha virt. eigenvalues --    2.94376   2.94989   2.95836   2.96266   2.97150
 Alpha virt. eigenvalues --    2.97490   2.98267   2.98601   2.99160   2.99502
 Alpha virt. eigenvalues --    2.99784   3.00104   3.00184   3.02102   3.28047
 Alpha virt. eigenvalues --    3.28063   3.35181   3.35285   3.35485   3.35787
 Alpha virt. eigenvalues --    3.36213   3.36784   3.37512   3.38383   3.39361
 Alpha virt. eigenvalues --    3.40418   3.41563   3.42843   3.44315   3.46011
 Alpha virt. eigenvalues --    3.47937   3.50063   3.51149   3.52285   3.52385
 Alpha virt. eigenvalues --    3.54240   3.54395   3.56566   3.58810   3.59116
 Alpha virt. eigenvalues --    3.60848   3.61648   3.63070   3.63970   3.65144
 Alpha virt. eigenvalues --    3.65908   3.66880   3.67349   3.68093   3.68241
 Alpha virt. eigenvalues --    3.71077   3.73397   4.13704   4.13754   4.13824
 Alpha virt. eigenvalues --    4.13901   4.13973   4.14044   4.14140   4.14290
 Alpha virt. eigenvalues --    4.14521   4.14853   4.15310   4.15912   4.16678
 Alpha virt. eigenvalues --    4.17628   4.18777   4.20126   4.21630   4.25280
 Alpha virt. eigenvalues --    4.25888   4.28547   4.31165   4.34062   4.37205
 Alpha virt. eigenvalues --    4.40564   4.44102   4.47773   4.51523   4.55286
 Alpha virt. eigenvalues --    4.58986   4.62540   4.65861   4.68859   4.71448
 Alpha virt. eigenvalues --    4.73552   4.75107   4.76070
          Condensed to atoms (all electrons):
 Mulliken charges:
               1
     1  C   -0.251963
     2  C   -0.033560
     3  C   -0.077893
     4  C   -0.076664
     5  C   -0.080859
     6  C   -0.078881
     7  C   -0.079989
     8  C   -0.079534
     9  C   -0.079907
    10  C   -0.079669
    11  C   -0.079870
    12  C   -0.079749
    13  C   -0.079833
    14  C   -0.079810
    15  C   -0.079793
    16  C   -0.079865
    17  C   -0.079749
    18  C   -0.079913
    19  C   -0.079700
    20  C   -0.079953
    21  C   -0.079647
    22  C   -0.079985
    23  C   -0.079590
    24  C   -0.080007
    25  C   -0.079530
    26  C   -0.080019
    27  C   -0.079459
    28  C   -0.080022
    29  C   -0.079327
    30  C   -0.080099
    31  C   -0.078729
    32  C   -0.080614
    33  C   -0.076903
    34  C   -0.078141
    35  C   -0.033761
    36  C   -0.253284
    37  H    0.095328
    38  H    0.095492
    39  H    0.083683
    40  H    0.081568
    41  H    0.080927
    42  H    0.080518
    43  H    0.080174
    44  H    0.080117
    45  H    0.079994
    46  H    0.079975
    47  H    0.079909
    48  H    0.079912
    49  H    0.079857
    50  H    0.079885
    51  H    0.079821
    52  H    0.079878
    53  H    0.079796
    54  H    0.079887
    55  H    0.079782
    56  H    0.079907
    57  H    0.079780
    58  H    0.079937
    59  H    0.079793
    60  H    0.079975
    61  H    0.079823
    62  H    0.080022
    63  H    0.079879
    64  H    0.080082
    65  H    0.079976
    66  H    0.080172
    67  H    0.080167
    68  H    0.080367
    69  H    0.080668
    70  H    0.081126
    71  H    0.082000
    72  H    0.083474
    73  H    0.093562
    74  H    0.099054
 Sum of Mulliken charges =  -0.00000
 Mulliken charges with hydrogens summed into heavy atoms:
               1
     1  C   -0.061143
     2  C    0.050123
     3  C    0.003675
     4  C    0.004263
     5  C   -0.000341
     6  C    0.001293
     7  C    0.000128
     8  C    0.000461
     9  C    0.000068
    10  C    0.000241
    11  C    0.000042
    12  C    0.000108
    13  C    0.000051
    14  C    0.000011
    15  C    0.000085
    16  C   -0.000068
    17  C    0.000138
    18  C   -0.000131
    19  C    0.000207
    20  C   -0.000173
    21  C    0.000290
    22  C   -0.000192
    23  C    0.000386
    24  C   -0.000183
    25  C    0.000492
    26  C   -0.000140
    27  C    0.000623
    28  C   -0.000046
    29  C    0.000846
    30  C    0.000068
    31  C    0.001637
    32  C    0.000054
    33  C    0.004224
    34  C    0.003859
    35  C    0.049713
    36  C   -0.060668
 Electronic spatial extent (au):  <R**2>=         150350.9939
 Charge=             -0.0000 electrons
 Dipole moment (field-independent basis, Debye):
    X=             -0.1286    Y=              0.0081    Z=              0.0004  Tot=              0.1288
 Quadrupole moment (field-independent basis, Debye-Ang):
   XX=           -210.6761   YY=           -188.2193   ZZ=           -233.9319
   XY=             -2.7456   XZ=             -0.0012   YZ=              0.0845
 Traceless Quadrupole moment (field-independent basis, Debye-Ang):
   XX=              0.2663   YY=             22.7232   ZZ=            -22.9895
   XY=             -2.7456   XZ=             -0.0012   YZ=              0.0845
 Octapole moment (field-independent basis, Debye-Ang**2):
  XXX=            -64.9877  YYY=              0.4656  ZZZ=             -0.0078  XYY=              3.0756
  XXY=              3.3061  XXZ=              0.3035  XZZ=             -0.3319  YZZ=              0.0554
  YYZ=              0.0012  XYZ=             -0.3418
 Hexadecapole moment (field-independent basis, Debye-Ang**3):
 XXXX=        -204048.0401 YYYY=           -625.6502 ZZZZ=           -242.6645 XXXY=          -1272.3988
 XXXZ=             -4.2630 YYYX=             -7.0396 YYYZ=              0.1763 ZZZX=              0.0809
 ZZZY=              0.0736 XXYY=         -31283.5639 XXZZ=         -38717.1928 YYZZ=           -162.9804
 XXYZ=             12.1215 YYXZ=              0.0992 ZZXY=             -2.3280
 N-N= 2.370422059147D+03 E-N=-7.966710786416D+03  KE= 1.380734573930D+03
 Calling FoFJK, ICntrl=      2127 FMM=T ISym2X=0 I1Cent= 0 IOpClX= 0 NMat=1 NMatS=1 NMatT=0.
 ***** Axes restored to original set *****
 -------------------------------------------------------------------
 Center     Atomic                   Forces (Hartrees/Bohr)
 Number     Number              X              Y              Z
 -------------------------------------------------------------------
      1        6          -0.008396682    0.004072201   -0.000187438
      2        6           0.010743517   -0.022498461    0.001249902
      3        6          -0.021244941    0.023800245   -0.001262497
      4        6           0.024703808   -0.025851629    0.001362645
      5        6          -0.026811853    0.025033176   -0.001300910
      6        6           0.027614883   -0.025682949    0.001335808
      7        6          -0.028330027    0.025378198   -0.001311664
      8        6           0.028609909   -0.025606228    0.001325895
      9        6          -0.028877118    0.025485694   -0.001314859
     10        6           0.029000129   -0.025574342    0.001322805
     11        6          -0.029110698    0.025513060   -0.001316193
     12        6           0.029185527   -0.025541132    0.001321933
     13        6          -0.029233876    0.025496796   -0.001317142
     14        6           0.029301861   -0.025491242    0.001322126
     15        6          -0.029322849    0.025446285   -0.001318302
     16        6           0.029401812   -0.025416467    0.001323044
     17        6          -0.029408580    0.025363331   -0.001319964
     18        6           0.029505891   -0.025313024    0.001324582
     19        6          -0.029502351    0.025249761   -0.001322195
     20        6           0.029618868   -0.025180097    0.001326579
     21        6          -0.029604682    0.025108133   -0.001324975
     22        6           0.029734763   -0.025019909    0.001328952
     23        6          -0.029705991    0.024944415   -0.001328271
     24        6           0.029836603   -0.024836806    0.001331459
     25        6          -0.029780382    0.024769153   -0.001332148
     26        6           0.029887468   -0.024636702    0.001333919
     27        6          -0.029771031    0.024599291   -0.001336921
     28        6           0.029806323   -0.024421112    0.001335289
     29        6          -0.029539648    0.024462755   -0.001343651
     30        6           0.029390296   -0.024168123    0.001335875
     31        6          -0.028688553    0.024416760   -0.001356031
     32        6           0.028023104   -0.023726248    0.001317453
     33        6          -0.025742007    0.024413645   -0.001375141
     34        6           0.023188452   -0.022067835    0.001289845
     35        6          -0.005959189    0.020457871   -0.001193171
     36        6          -0.006852444    0.009644875   -0.000650926
     37        1          -0.002741846   -0.003534667    0.000222837
     38        1          -0.002397005    0.000475135   -0.000012894
     39        1           0.005366220    0.000212491   -0.000044750
     40        1          -0.003411937    0.000565439   -0.000011825
     41        1           0.003195288   -0.000409819    0.000004568
     42        1          -0.003199467    0.000476771   -0.000007621
     43        1           0.003207158   -0.000426454    0.000005274
     44        1          -0.003210550    0.000457168   -0.000006090
     45        1           0.003209079   -0.000440904    0.000005784
     46        1          -0.003213460    0.000446663   -0.000005209
     47        1           0.003212333   -0.000445646    0.000005581
     48        1          -0.003217113    0.000438741   -0.000004677
     49        1           0.003215503   -0.000446408    0.000005090
     50        1          -0.003220662    0.000430226   -0.000004402
     51        1           0.003218187   -0.000444178    0.000004457
     52        1          -0.003223718    0.000419733   -0.000004360
     53        1           0.003220081   -0.000438983    0.000003800
     54        1          -0.003225881    0.000406967   -0.000004544
     55        1           0.003220943   -0.000430487    0.000003194
     56        1          -0.003226818    0.000391611   -0.000004919
     57        1           0.003220491   -0.000418759    0.000002753
     58        1          -0.003226169    0.000374359   -0.000005444
     59        1           0.003218693   -0.000403884    0.000002518
     60        1          -0.003223776    0.000355732   -0.000006028
     61        1           0.003215634   -0.000386693    0.000002551
     62        1          -0.003219804    0.000336362   -0.000006545
     63        1           0.003211664   -0.000368550    0.000002877
     64        1          -0.003214649    0.000316778   -0.000006892
     65        1           0.003207474   -0.000352068    0.000003556
     66        1          -0.003209299    0.000296388   -0.000006739
     67        1           0.003204574   -0.000341802    0.000004721
     68        1          -0.003205994    0.000270799   -0.000006371
     69        1           0.003194726   -0.000348720    0.000007006
     70        1          -0.003205321    0.000226921   -0.000002809
     71        1           0.003441222   -0.000409213    0.000010322
     72        1          -0.003973340   -0.000021571   -0.000010310
     73        1           0.000757898   -0.000063185    0.000010305
     74        1           0.011359330   -0.009389633    0.000579527
 -------------------------------------------------------------------
 Cartesian Forces:  Max     0.029887468 RMS     0.014704392

 GradGradGradGradGradGradGradGradGradGradGradGradGradGradGradGradGradGrad
 Berny optimization.
 FormGI is forming the generalized inverse of G from B-inverse, IUseBI=4.
 Internal  Forces:  Max     0.022272627 RMS     0.008394122
 Search for a local minimum.
 Step number   1 out of a maximum of  331
 All quantities printed in internal units (Hartrees-Bohrs-Radians)
 Mixed Optimization -- RFO/linear search
 Second derivative matrix not updated -- first step.
 ITU=  0
     Eigenvalues ---    0.01059   0.01059   0.01059   0.01059   0.01059
     Eigenvalues ---    0.01059   0.01059   0.01059   0.01060   0.01060
     Eigenvalues ---    0.01060   0.01060   0.01060   0.01061   0.01061
     Eigenvalues ---    0.01061   0.01066   0.01978   0.01978   0.01978
     Eigenvalues ---    0.01978   0.01978   0.01978   0.01978   0.01978
     Eigenvalues ---    0.01978   0.01978   0.01978   0.01978   0.01978
     Eigenvalues ---    0.01978   0.01978   0.01978   0.01978   0.01978
     Eigenvalues ---    0.01978   0.01978   0.01978   0.01978   0.01978
     Eigenvalues ---    0.01978   0.01978   0.01978   0.01979   0.01979
     Eigenvalues ---    0.01979   0.01979   0.01979   0.01979   0.01982
     Eigenvalues ---    0.01999   0.02887   0.02887   0.02887   0.02887
     Eigenvalues ---    0.02888   0.02888   0.02888   0.02888   0.02888
     Eigenvalues ---    0.02888   0.02888   0.02888   0.02888   0.02888
     Eigenvalues ---    0.02888   0.02888   0.02888   0.02888   0.02949
     Eigenvalues ---    0.02949   0.16000   0.16000   0.16000   0.16000
     Eigenvalues ---    0.16000   0.16000   0.16000   0.16000   0.16000
     Eigenvalues ---    0.16000   0.16000   0.16000   0.16000   0.16000
     Eigenvalues ---    0.16000   0.16000   0.16000   0.16000   0.16000
     Eigenvalues ---    0.16000   0.16000   0.16000   0.16000   0.16000
     Eigenvalues ---    0.16000   0.16000   0.16000   0.16000   0.16000
     Eigenvalues ---    0.16000   0.16000   0.16000   0.16000   0.16000
     Eigenvalues ---    0.16000   0.16000   0.16000   0.16000   0.22000
     Eigenvalues ---    0.22000   0.22000   0.22000   0.22000   0.22000
     Eigenvalues ---    0.22000   0.22000   0.22000   0.22000   0.22000
     Eigenvalues ---    0.22000   0.22000   0.22000   0.22000   0.22000
     Eigenvalues ---    0.22000   0.22000   0.22000   0.22000   0.22000
     Eigenvalues ---    0.22000   0.22000   0.22000   0.22000   0.22000
     Eigenvalues ---    0.22000   0.22000   0.22000   0.22000   0.22000
     Eigenvalues ---    0.22000   0.22000   0.22000   0.34816   0.34816
     Eigenvalues ---    0.34817   0.34817   0.34818   0.34819   0.34820
     Eigenvalues ---    0.34821   0.34822   0.34822   0.34822   0.34826
     Eigenvalues ---    0.34829   0.34832   0.34833   0.34834   0.34880
     Eigenvalues ---    0.35075   0.35075   0.35076   0.35076   0.35076
     Eigenvalues ---    0.35077   0.35077   0.35077   0.35078   0.35078
     Eigenvalues ---    0.35079   0.35079   0.35079   0.35080   0.35080
     Eigenvalues ---    0.35080   0.35081   0.35081   0.35082   0.35083
     Eigenvalues ---    0.35083   0.35084   0.35084   0.35085   0.35085
     Eigenvalues ---    0.35086   0.35086   0.35087   0.35088   0.35088
     Eigenvalues ---    0.35088   0.35088   0.35089   0.35089   0.35192
     Eigenvalues ---    0.35272   0.35371   0.37848   0.57279   0.57280
     Eigenvalues ---    0.57283   0.57287   0.57291   0.57295   0.57296
     Eigenvalues ---    0.57298   0.57299   0.57299   0.57301   0.57301
     Eigenvalues ---    0.57302   0.57303   0.57303   0.57305   0.57306
     Eigenvalues ---    0.58340
 RFO step:  Lambda=-5.96206628D-02 EMin= 1.05887989D-02
 Linear search not attempted -- first point.
 Maximum step size (   0.300) exceeded in Quadratic search.
    -- Step size scaled by   0.715
 Iteration  1 RMS(Cart)=  0.09828384 RMS(Int)=  0.00033829
 Iteration  2 RMS(Cart)=  0.00150024 RMS(Int)=  0.00000014
 Iteration  3 RMS(Cart)=  0.00000024 RMS(Int)=  0.00000013
 Variable       Old X    -DE/DX   Delta X   Delta X   Delta X     New X
                                 (Linear)    (Quad)   (Total)
    R1        2.52278   0.01190   0.00000   0.01322   0.01322   2.53601
    R2        2.05076   0.00017   0.00000   0.00030   0.00030   2.05106
    R3        2.05236  -0.00019   0.00000  -0.00034  -0.00034   2.05202
    R4        2.79169  -0.01415   0.00000  -0.02477  -0.02477   2.76692
    R5        2.05365   0.00063   0.00000   0.00109   0.00109   2.05474
    R6        2.53138   0.01877   0.00000   0.02120   0.02120   2.55259
    R7        2.05547  -0.00026   0.00000  -0.00045  -0.00045   2.05501
    R8        2.79264  -0.01790   0.00000  -0.03136  -0.03136   2.76128
    R9        2.05546  -0.00013   0.00000  -0.00022  -0.00022   2.05524
   R10        2.53147   0.02100   0.00000   0.02373   0.02373   2.55520
   R11        2.05542  -0.00019   0.00000  -0.00033  -0.00033   2.05509
   R12        2.79264  -0.01890   0.00000  -0.03313  -0.03313   2.75951
   R13        2.05544  -0.00014   0.00000  -0.00025  -0.00025   2.05519
   R14        2.53145   0.02177   0.00000   0.02460   0.02460   2.55605
   R15        2.05541  -0.00017   0.00000  -0.00030  -0.00030   2.05511
   R16        2.79266  -0.01925   0.00000  -0.03374  -0.03374   2.75893
   R17        2.05544  -0.00016   0.00000  -0.00027  -0.00027   2.05517
   R18        2.53144   0.02206   0.00000   0.02492   0.02492   2.55636
   R19        2.05540  -0.00016   0.00000  -0.00028  -0.00028   2.05512
   R20        2.79269  -0.01939   0.00000  -0.03399  -0.03399   2.75870
   R21        2.05545  -0.00016   0.00000  -0.00028  -0.00028   2.05517
   R22        2.53143   0.02218   0.00000   0.02506   0.02506   2.55649
   R23        2.05539  -0.00016   0.00000  -0.00027  -0.00027   2.05512
   R24        2.79271  -0.01945   0.00000  -0.03410  -0.03410   2.75862
   R25        2.05546  -0.00017   0.00000  -0.00029  -0.00029   2.05517
   R26        2.53141   0.02224   0.00000   0.02513   0.02513   2.55654
   R27        2.05537  -0.00015   0.00000  -0.00026  -0.00026   2.05511
   R28        2.79273  -0.01948   0.00000  -0.03415  -0.03415   2.75858
   R29        2.05547  -0.00017   0.00000  -0.00029  -0.00029   2.05518
   R30        2.53141   0.02226   0.00000   0.02515   0.02515   2.55656
   R31        2.05536  -0.00015   0.00000  -0.00026  -0.00026   2.05510
   R32        2.79274  -0.01950   0.00000  -0.03417  -0.03417   2.75857
   R33        2.05549  -0.00017   0.00000  -0.00030  -0.00030   2.05519
   R34        2.53141   0.02227   0.00000   0.02516   0.02516   2.55657
   R35        2.05534  -0.00014   0.00000  -0.00025  -0.00025   2.05509
   R36        2.79274  -0.01950   0.00000  -0.03418  -0.03418   2.75856
   R37        2.05550  -0.00017   0.00000  -0.00030  -0.00030   2.05520
   R38        2.53142   0.02227   0.00000   0.02516   0.02516   2.55658
   R39        2.05533  -0.00014   0.00000  -0.00025  -0.00025   2.05508
   R40        2.79272  -0.01949   0.00000  -0.03417  -0.03417   2.75856
   R41        2.05551  -0.00018   0.00000  -0.00031  -0.00031   2.05521
   R42        2.53144   0.02225   0.00000   0.02514   0.02514   2.55658
   R43        2.05532  -0.00014   0.00000  -0.00024  -0.00024   2.05507
   R44        2.79269  -0.01948   0.00000  -0.03414  -0.03414   2.75855
   R45        2.05552  -0.00018   0.00000  -0.00031  -0.00031   2.05521
   R46        2.53147   0.02221   0.00000   0.02510   0.02510   2.55657
   R47        2.05531  -0.00014   0.00000  -0.00024  -0.00024   2.05507
   R48        2.79264  -0.01945   0.00000  -0.03408  -0.03408   2.75857
   R49        2.05553  -0.00018   0.00000  -0.00031  -0.00031   2.05521
   R50        2.53151   0.02214   0.00000   0.02502   0.02502   2.55653
   R51        2.05531  -0.00014   0.00000  -0.00024  -0.00024   2.05507
   R52        2.79259  -0.01938   0.00000  -0.03396  -0.03396   2.75863
   R53        2.05553  -0.00018   0.00000  -0.00031  -0.00031   2.05521
   R54        2.53155   0.02201   0.00000   0.02487   0.02487   2.55642
   R55        2.05532  -0.00014   0.00000  -0.00024  -0.00024   2.05507
   R56        2.79253  -0.01924   0.00000  -0.03371  -0.03371   2.75883
   R57        2.05552  -0.00018   0.00000  -0.00032  -0.00032   2.05520
   R58        2.53158   0.02171   0.00000   0.02454   0.02454   2.55612
   R59        2.05533  -0.00014   0.00000  -0.00024  -0.00024   2.05509
   R60        2.79248  -0.01889   0.00000  -0.03310  -0.03310   2.75938
   R61        2.05551  -0.00019   0.00000  -0.00033  -0.00033   2.05518
   R62        2.53160   0.02095   0.00000   0.02368   0.02368   2.55528
   R63        2.05535  -0.00013   0.00000  -0.00022  -0.00022   2.05513
   R64        2.79246  -0.01794   0.00000  -0.03142  -0.03142   2.76104
   R65        2.05549  -0.00021   0.00000  -0.00037  -0.00037   2.05513
   R66        2.53161   0.01864   0.00000   0.02106   0.02106   2.55267
   R67        2.05537  -0.00009   0.00000  -0.00016  -0.00016   2.05520
   R68        2.79247  -0.01479   0.00000  -0.02591  -0.02591   2.76656
   R69        2.05548  -0.00027   0.00000  -0.00047  -0.00047   2.05501
   R70        2.53139   0.00476   0.00000   0.00538   0.00538   2.53676
   R71        2.05538   0.00018   0.00000   0.00031   0.00031   2.05569
   R72        2.05547  -0.00003   0.00000  -0.00006  -0.00006   2.05541
   R73        2.01287   0.01445   0.00000   0.02358   0.02358   2.03645
    A1        2.09386   0.00445   0.00000   0.01449   0.01449   2.10835
    A2        2.11474   0.00027   0.00000   0.00089   0.00089   2.11563
    A3        2.07459  -0.00473   0.00000  -0.01538  -0.01538   2.05921
    A4        2.11397   0.01185   0.00000   0.03030   0.03030   2.14427
    A5        2.07623  -0.00045   0.00000   0.00267   0.00267   2.07891
    A6        2.09299  -0.01140   0.00000  -0.03297  -0.03297   2.06001
    A7        2.11049   0.01216   0.00000   0.03109   0.03109   2.14158
    A8        2.08143  -0.00963   0.00000  -0.02708  -0.02708   2.05435
    A9        2.09126  -0.00254   0.00000  -0.00401  -0.00401   2.08725
   A10        2.11086   0.01272   0.00000   0.03252   0.03252   2.14337
   A11        2.09042  -0.00305   0.00000  -0.00549  -0.00549   2.08493
   A12        2.08190  -0.00967   0.00000  -0.02702  -0.02702   2.05488
   A13        2.11085   0.01242   0.00000   0.03176   0.03176   2.14261
   A14        2.08175  -0.00953   0.00000  -0.02668  -0.02668   2.05507
   A15        2.09058  -0.00289   0.00000  -0.00508  -0.00508   2.08551
   A16        2.11087   0.01265   0.00000   0.03235   0.03235   2.14322
   A17        2.09056  -0.00301   0.00000  -0.00536  -0.00536   2.08520
   A18        2.08175  -0.00965   0.00000  -0.02698  -0.02698   2.05477
   A19        2.11077   0.01255   0.00000   0.03207   0.03207   2.14284
   A20        2.08182  -0.00960   0.00000  -0.02687  -0.02687   2.05495
   A21        2.09060  -0.00295   0.00000  -0.00520  -0.00520   2.08540
   A22        2.11098   0.01263   0.00000   0.03228   0.03228   2.14326
   A23        2.09050  -0.00299   0.00000  -0.00532  -0.00532   2.08519
[...]
 .00000543,0.00000035,-0.00000008,-0.00000181,0.00000014,0.00000047,-0.
 00000654,0.00000043,0.00000004,-0.00000203,0.00000018,0.00000062,-0.00
 000797,0.00000054,0.00000051,-0.00000197,0.00000022,0.00000056,-0.0000
 0966,0.00000066,0.00000260,-0.00000069,0.00000029,-0.00000191,-0.00001
 175,0.00000103,0.00003838,0.00000483,0.00000011,-0.00025473,0.00009774
 ,0.00000207,0.00103780,0.00068134,-0.00003360,0.00258854,-0.00057824,0
 .00023808,0.03361002,0.34471796,-0.00000030,0.00000022,-0.00000035,0.0
 0000010,-0.00000050,-0.00000008,-0.00000014,0.00000041,-0.00000011,0.0
 0000007,-0.00000055,-0.00000007,-0.00000006,0.00000040,-0.00000013,0.0
 0000004,-0.00000057,-0.00000010,-0.00000006,0.00000049,-0.00000007,0.0
 0000005,-0.00000062,0.,-0.00000007,0.00000049,0.,0.00000004,-0.0000006
 4,0.00000002,-0.00000007,0.00000051,-0.00000004,0.,-0.00000074,0.00000
 002,-0.00000005,0.00000060,-0.00000007,-0.00000001,-0.00000084,0.,-0.0
 0000005,0.00000065,-0.00000011,-0.00000002,-0.00000101,-0.00000003,-0.
 00000002,0.00000075,-0.00000014,-0.00000006,-0.00000112,-0.00000006,-0
 .00000004,0.00000087,-0.00000022,-0.00000009,-0.00000129,-0.00000011,0
 .,0.00000103,-0.00000035,-0.00000016,-0.00000156,-0.00000019,0.0000000
 4,0.00000127,-0.00000052,-0.00000031,-0.00000190,-0.00000052,0.0000001
 9,0.00000159,-0.00000110,-0.00000063,-0.00000234,-0.00000025,0.0000005
 2,0.00000223,-0.00000077,-0.00000139,-0.00000324,-0.00000416,0.0000012
 2,0.00000293,-0.00001152,-0.00000297,-0.00000335,0.00001559,0.00000097
 ,0.00000438,-0.00002127,-0.00002602,-0.00004445,-0.00019884,0.00008866
 ,-0.00015764,-0.00163995,0.00020241,0.00102244,0.00295720,0.00193004,0
 .01686728,-0.04273471,0.00003415,0.00108414,0.00514319,-0.00000007,0.0
 0000002,0.00000013,0.00000001,-0.00000002,0.00000014,0.,0.00000008,0.0
 0000013,0.,0.00000003,0.00000012,0.,0.00000013,0.00000009,0.,0.0000000
 4,0.00000011,0.,0.00000011,0.00000011,0.,0.,0.00000007,0.,0.00000010,0
 .00000001,0.,0.00000003,0.,0.,0.00000012,0.,0.,0.00000005,0.,0.,0.0000
 0015,0.00000001,0.,0.00000005,0.00000003,-0.00000001,0.00000018,0.0000
 0004,0.,0.00000006,0.00000007,0.,0.00000026,0.00000005,0.,0.00000008,0
 .00000010,0.,0.00000025,0.00000011,0.,0.00000010,0.00000016,-0.0000000
 2,0.00000028,0.00000017,0.,0.00000011,0.00000027,-0.00000002,0.0000003
 4,0.00000029,0.,0.00000014,0.00000045,-0.00000002,0.00000043,0.0000005
 0,0.,0.00000018,0.00000086,-0.00000003,0.00000053,0.00000092,-0.000000
 02,0.00000017,0.00000154,-0.00000002,0.00000065,0.00000118,-0.00000012
 ,0.00000025,0.00000417,0.00000009,0.00000104,0.00000538,-0.00000192,0.
 00000048,0.00001069,0.00001555,0.00000207,0.00010767,-0.00005892,-0.00
 002226,0.00022130,-0.00011001,0.00023915,0.00365477,-0.00221941,-0.019
 12273,0.02845870,0.00000093,-0.00000060,0.00000003,-0.00000031,0.00000
 139,-0.00000008,0.00000027,-0.00000117,0.00000007,-0.00000015,0.000001
 48,-0.00000009,0.00000020,-0.00000114,0.00000007,-0.00000009,0.0000015
 2,-0.00000009,0.00000016,-0.00000119,0.00000007,-0.00000019,0.00000168
 ,-0.00000010,0.00000028,-0.00000132,0.00000007,-0.00000019,0.00000179,
 -0.00000011,0.00000031,-0.00000138,0.00000008,-0.00000023,0.00000195,-
 0.00000012,0.00000035,-0.00000148,0.00000008,-0.00000027,0.00000214,-0
 .00000013,0.00000043,-0.00000160,0.00000009,-0.00000035,0.00000238,-0.
 00000014,0.00000057,-0.00000174,0.00000010,-0.00000050,0.00000267,-0.0
 0000016,0.00000078,-0.00000192,0.00000011,-0.00000074,0.00000300,-0.00
 000018,0.00000112,-0.00000212,0.00000012,-0.00000112,0.00000339,-0.000
 00020,0.00000162,-0.00000235,0.00000013,-0.00000173,0.00000382,-0.0000
 0021,0.00000244,-0.00000259,0.00000014,-0.00000273,0.00000420,-0.00000
 027,0.00000374,-0.00000281,0.00000014,-0.00000391,0.00000440,-0.000000
 10,0.00000608,-0.00000258,0.00000007,-0.00000499,0.00000239,-0.0000007
 2,0.00002620,0.00000095,0.,0.00003544,0.00007565,-0.00000285,-0.000135
 24,0.00020143,-0.00001164,0.00178670,-0.00182548,0.00005554,0.00009421
 ,-0.03079616,0.00186303,-0.06505985,-0.03829320,0.00246884,0.00000012,
 0.,0.,-0.00000004,0.,0.,-0.00000003,-0.00000026,0.00000001,-0.00000001
 ,-0.00000004,0.,-0.00000001,-0.00000030,0.00000002,-0.00000001,-0.0000
 0006,0.,0.,-0.00000032,0.00000002,-0.00000002,-0.00000008,0.,0.,-0.000
 00032,0.00000002,-0.00000001,-0.00000011,0.,0.,-0.00000035,0.00000002,
 -0.00000001,-0.00000012,0.,0.,-0.00000040,0.00000002,-0.00000002,-0.00
 000014,0.00000001,0.,-0.00000046,0.00000003,-0.00000002,-0.00000017,0.
 00000001,0.00000001,-0.00000052,0.00000003,-0.00000002,-0.00000021,0.0
 0000001,0.00000001,-0.00000059,0.00000004,-0.00000002,-0.00000025,0.00
 000002,0.00000001,-0.00000067,0.00000004,-0.00000002,-0.00000029,0.000
 00002,0.,-0.00000076,0.00000005,0.,-0.00000034,0.00000002,-0.00000002,
 -0.00000084,0.00000005,0.00000005,-0.00000036,0.00000002,-0.00000010,-
 0.00000087,0.00000006,0.00000017,-0.00000027,0.00000003,-0.00000039,-0
 .00000062,0.00000005,0.00000127,0.00000032,-0.00000008,-0.00000320,0.0
 0000087,0.,0.00001030,0.00000308,-0.00000015,-0.00005043,0.00003304,-0
 .00000166,0.00012841,0.00023564,-0.00001283,-0.00023301,0.00094504,-0.
 00005330,-0.00463569,-0.00165445,0.00018960,0.06160377,-0.00000033,0.0
 0000033,0.00000004,0.00000037,-0.00000071,0.00000007,-0.00000021,0.000
 00064,-0.00000002,0.00000013,-0.00000072,0.00000006,-0.00000020,0.0000
 0065,-0.00000002,0.00000028,-0.00000085,0.00000006,-0.00000048,0.00000
 066,-0.00000003,0.00000020,-0.00000082,0.00000004,-0.00000037,0.000000
 56,-0.00000005,0.00000043,-0.00000096,0.00000004,-0.00000058,0.0000005
 9,-0.00000005,0.00000061,-0.00000110,0.00000005,-0.00000093,0.00000064
 ,-0.00000006,0.00000104,-0.00000128,0.00000005,-0.00000147,0.00000070,
 -0.00000005,0.00000166,-0.00000150,0.00000005,-0.00000227,0.00000076,-
 0.00000005,0.00000263,-0.00000179,0.00000006,-0.00000354,0.00000082,-0
 .00000005,0.00000419,-0.00000224,0.00000008,-0.00000562,0.00000086,-0.
 00000005,0.00000680,-0.00000288,0.00000007,-0.00000920,0.00000084,-0.0
 0000003,0.00001140,-0.00000389,0.00000018,-0.00001569,0.00000064,-0.00
 000001,0.00001991,-0.00000568,-0.00000016,-0.00002834,0.00000002,0.000
 00012,0.00003707,-0.00000912,0.00000172,-0.00005766,-0.00000139,-0.000
 00012,0.00007407,-0.00002210,-0.00000534,-0.00013102,-0.00000335,0.000
 00323,0.00011969,-0.00005649,0.00002180,-0.00035115,0.00042841,-0.0000
 2772,0.00221983,0.00097846,-0.00051007,-0.00066151,-0.01001757,0.00088
 141,-0.04173643,-0.33100835,0.01800059,-0.00000022,0.00000004,-0.00000
 003,0.,-0.00000006,-0.00000002,-0.00000003,0.00000008,-0.00000003,-0.0
 0000002,-0.00000001,-0.00000003,0.,0.00000011,-0.00000003,0.,0.,-0.000
 00002,0.00000001,0.00000014,-0.00000002,0.00000004,0.00000003,0.,0.000
 00003,0.00000019,0.,0.00000004,0.00000006,0.00000001,0.00000002,0.0000
 0024,0.,0.00000004,0.00000013,0.,0.00000001,0.00000027,0.,0.00000005,0
 .00000016,0.,0.,0.00000032,0.,0.00000005,0.00000020,0.00000001,0.,0.00
 000038,0.,0.00000006,0.00000024,0.,0.,0.00000045,0.,0.00000008,0.00000
 030,0.00000001,0.,0.00000056,0.,0.00000010,0.00000041,0.,-0.00000002,0
 .00000071,0.,0.00000015,0.00000057,0.00000001,-0.00000005,0.00000096,0
 .,0.00000026,0.00000084,0.,-0.00000014,0.00000138,0.,0.00000056,0.0000
 0139,0.00000008,-0.00000035,0.00000223,0.,0.00000158,0.00000256,-0.000
 00069,-0.00000099,0.00000466,-0.00000003,0.00000503,0.00000416,0.00000
 066,-0.00001513,0.00000804,-0.00000023,0.00022158,-0.00001220,0.000019
 57,-0.00097648,0.00054492,-0.00000948,-0.00195182,0.00084430,0.0006149
 6,0.04823327,0.35030846,0.00000002,-0.00000002,-0.00000035,-0.00000001
 ,0.00000003,-0.00000012,-0.00000004,-0.00000005,-0.00000009,0.00000001
 ,0.00000002,-0.00000012,0.00000002,-0.00000006,-0.00000011,-0.00000003
 ,0.00000005,-0.00000014,0.00000004,-0.00000002,-0.00000005,0.,0.000000
 04,-0.00000004,0.00000002,-0.00000004,0.00000002,-0.00000002,0.0000000
 8,-0.00000002,0.00000003,-0.00000006,-0.00000001,-0.00000004,0.0000000
 6,-0.00000003,0.00000006,-0.00000004,-0.00000004,-0.00000008,0.0000000
 6,-0.00000006,0.00000010,-0.00000006,-0.00000008,-0.00000011,0.0000000
 3,-0.00000010,0.00000016,-0.00000005,-0.00000010,-0.00000018,0.0000000
 7,-0.00000016,0.00000021,-0.00000006,-0.00000018,-0.00000026,0.0000001
 2,-0.00000015,0.00000034,-0.00000007,-0.00000030,-0.00000040,0.0000001
 1,-0.00000058,0.00000053,-0.00000006,-0.00000036,-0.00000066,0.0000002
 3,0.00000049,0.00000091,-0.00000008,-0.00000102,-0.00000121,-0.0000000
 5,-0.00000599,0.00000166,0.00000002,-0.00000035,-0.00000204,0.00000193
 ,0.00002343,0.00000329,-0.00000041,-0.00000908,-0.00000497,-0.00000488
 ,-0.00010402,0.00000789,0.00000242,0.00003758,-0.00000550,0.00002201,0
 .00031913,0.00002133,-0.00003101,-0.00006981,-0.00018570,-0.00048648,-
 0.00732961,0.00006635,0.00105708,0.00463660,0.00267414,0.01798023,-0.0
 3426458,0.00000001,0.00000001,0.00000014,0.,0.,0.00000015,0.,-0.000000
 01,0.00000014,0.,0.00000002,0.00000013,0.,0.00000002,0.00000011,0.,0.0
 0000002,0.00000013,0.,0.,0.00000012,0.,-0.00000002,0.00000008,0.,-0.00
 000002,0.00000002,0.,0.,0.,0.,-0.00000002,0.00000001,0.,0.,0.00000001,
 0.,0.,0.00000003,0.,0.,0.00000004,0.,0.,0.00000006,0.,0.,0.00000008,0.
 ,0.00000004,0.00000008,0.,0.,0.00000011,0.,0.,0.00000014,0.,0.,0.00000
 017,0.,-0.00000002,0.00000022,0.,0.,0.00000025,0.,-0.00000002,0.000000
 35,0.,0.,0.00000049,0.,-0.00000002,0.00000058,-0.00000001,-0.00000001,
 0.00000049,0.00000002,-0.00000001,0.00000111,-0.00000002,0.00000003,0.
 00000253,0.00000004,-0.00000002,0.00000190,-0.00000016,-0.00000074,-0.
 00000897,0.00000010,-0.00000003,0.00000423,-0.00000026,0.00000070,0.00
 001597,0.00000121,-0.00000044,0.00000326,-0.00001199,0.00001953,0.0003
 3722,0.00006127,-0.00002067,0.00029195,0.00020738,0.00061333,0.0109308
 5,-0.00310815,-0.01987188,0.02292853,-0.00000469,0.00000297,-0.0000000
 9,0.00000248,-0.00000702,0.00000043,-0.00000213,0.00000634,-0.00000035
 ,0.00000092,-0.00000739,0.00000046,-0.00000091,0.00000607,-0.00000034,
 0.00000028,-0.00000787,0.00000049,-0.00000076,0.00000627,-0.00000037,0
 .00000008,-0.00000843,0.00000050,-0.00000067,0.00000661,-0.00000040,0.
 00000037,-0.00000931,0.00000053,-0.00000103,0.00000716,-0.00000043,0.0
 0000052,-0.00001036,0.00000061,-0.00000133,0.00000788,-0.00000047,0.00
 000068,-0.00001162,0.00000068,-0.00000161,0.00000882,-0.00000052,0.000
 00076,-0.00001316,0.00000077,-0.00000189,0.00000993,-0.00000060,0.0000
 0088,-0.00001505,0.00000088,-0.00000230,0.00001139,-0.00000067,0.00000
 108,-0.00001751,0.00000102,-0.00000294,0.00001328,-0.00000079,0.000001
 49,-0.00002062,0.00000122,-0.00000403,0.00001577,-0.00000094,0.0000022
 8,-0.00002474,0.00000142,-0.00000603,0.00001920,-0.00000113,0.00000366
 ,-0.00003052,0.00000188,-0.00001012,0.00002468,-0.00000146,0.00000444,
 -0.00004051,0.00000198,-0.00002221,0.00003899,-0.00000214,-0.00001117,
 -0.00007469,0.00000632,-0.00009445,0.00013621,-0.00000799,-0.00025162,
 -0.00036239,0.00001466,-0.00063916,0.00132211,-0.00007373,-0.00258437,
 -0.00423629,0.00033531,-0.01882207,0.02014763,-0.00106723,-0.24084641,
 0.13604272,-0.00688978,-0.00000074,0.00000013,-0.00000003,0.00000011,-
 0.00000025,-0.00000001,0.00000013,0.00000108,-0.00000009,0.00000003,0.
 00000009,-0.00000003,0.00000005,0.00000140,-0.00000011,0.00000008,0.00
 000026,-0.00000004,0.00000003,0.00000156,-0.00000011,0.00000014,0.0000
 0037,-0.00000003,0.00000002,0.00000170,-0.00000009,0.00000011,0.000000
 48,-0.00000002,-0.00000003,0.00000191,-0.00000010,0.00000012,0.0000006
 5,-0.00000003,-0.00000005,0.00000219,-0.00000012,0.00000012,0.00000080
 ,-0.00000004,-0.00000006,0.00000252,-0.00000014,0.00000013,0.00000096,
 -0.00000005,-0.00000009,0.00000291,-0.00000016,0.00000015,0.00000117,-
 0.00000006,-0.00000012,0.00000337,-0.00000019,0.00000018,0.00000139,-0
 .00000007,-0.00000016,0.00000396,-0.00000022,0.00000020,0.00000165,-0.
 00000008,-0.00000023,0.00000468,-0.00000026,0.00000024,0.00000196,-0.0
 0000010,-0.00000033,0.00000561,-0.00000032,0.00000030,0.00000237,-0.00
 000012,-0.00000046,0.00000687,-0.00000040,0.00000046,0.00000286,-0.000
 00017,-0.00000060,0.00000863,-0.00000048,0.00000088,0.00000304,-0.0000
 0004,0.00000073,0.00001162,-0.00000070,0.00000143,-0.00000083,-0.00000
 041,0.00001592,0.00001735,-0.00000101,0.00000525,-0.00007285,0.0000051
 4,0.00013202,0.00012315,-0.00000980,0.00102692,-0.00009577,-0.00004068
 ,0.00642970,-0.00501105,0.00027471,0.25567943,-0.00000010,-0.00000012,
 -0.00000007,0.00000006,0.00000021,-0.00000004,-0.00000013,-0.00000012,
 -0.00000001,0.00000002,0.00000016,-0.00000004,0.00000009,-0.00000012,-
 0.00000002,-0.00000026,0.00000017,-0.00000003,0.00000047,-0.00000012,0
 .,-0.00000029,0.,0.,0.00000036,-0.00000003,0.00000001,-0.00000043,-0.0
 0000003,0.00000002,0.00000044,0.00000007,0.,-0.00000050,-0.00000010,0.
 00000002,0.00000062,0.00000017,0.,-0.00000080,-0.00000018,0.00000002,0
 .00000099,0.00000030,-0.00000002,-0.00000129,-0.00000031,0.00000004,0.
 00000158,0.00000050,-0.00000003,-0.00000209,-0.00000050,0.00000005,0.0
 0000253,0.00000078,-0.00000006,-0.00000335,-0.00000071,0.00000006,0.00
 000407,0.00000123,-0.00000010,-0.00000544,-0.00000107,0.00000014,0.000
 00667,0.00000200,-0.00000018,-0.00000905,-0.00000168,-0.00000004,0.000
 01128,0.00000343,-0.00000024,-0.00001570,-0.00000270,0.00000103,0.0000
 1980,0.00000656,-0.00000076,-0.00002941,-0.00000563,-0.00000348,0.0000
 3682,0.00001601,-0.00000062,-0.00006788,-0.00001902,0.00001987,0.00006
 208,0.00006671,-0.00000880,-0.00028256,-0.00013277,-0.00007681,-0.0001
 8357,0.00080742,-0.00003337,-0.00212062,-0.00095542,0.00076163,-0.0127
 7119,0.01071946,-0.00031584,0.14055296,-0.16235736,0.00700424,0.000000
 13,-0.00000005,0.00000003,0.00000001,0.00000005,0.00000003,0.00000003,
 -0.00000007,0.00000004,0.00000002,0.00000005,0.00000003,-0.00000001,-0
 .00000004,0.00000003,0.,0.00000005,0.00000002,-0.00000003,0.,0.0000000
 2,-0.00000003,0.00000004,0.00000001,-0.00000006,0.00000003,0.,-0.00000
 002,0.00000003,-0.00000001,-0.00000004,0.00000003,-0.00000001,-0.00000
 002,0.,-0.00000001,-0.00000004,0.00000004,-0.00000001,-0.00000002,0.,0
 .,-0.00000004,0.00000006,-0.00000001,-0.00000002,0.00000001,0.,-0.0000
 0005,0.00000009,-0.00000001,-0.00000001,0.00000002,0.,-0.00000006,0.00
 000014,-0.00000001,0.,0.00000002,0.,-0.00000009,0.00000019,-0.00000001
 ,0.,0.00000002,0.,-0.00000013,0.00000030,-0.00000001,0.00000003,0.0000
 0002,0.,-0.00000021,0.00000047,-0.00000001,0.00000007,0.00000004,0.000
 00007,-0.00000038,0.00000080,-0.00000002,0.00000019,0.00000008,-0.0000
 0016,-0.00000094,0.00000162,0.,0.00000063,0.00000035,0.00000132,-0.000
 00173,0.00000350,-0.00000015,0.00000015,-0.00000163,-0.00000431,-0.000
 00651,0.00001066,0.00000093,0.00008517,-0.00000843,0.00000870,-0.00037
 853,0.00039435,-0.00003822,0.00023328,0.00123022,-0.00048794,0.0228375
 2,-0.01199000,0.00071912,-0.14797444,0.16220978,0.00000005,-0.00000001
 ,-0.00000032,-0.00000002,0.00000003,-0.00000010,-0.00000002,-0.0000000
 6,-0.00000008,0.00000001,0.00000002,-0.00000010,0.00000001,-0.00000006
 ,-0.00000010,0.,0.00000004,-0.00000013,-0.00000001,-0.00000001,-0.0000
 0004,0.00000002,0.00000005,-0.00000004,-0.00000002,-0.00000004,0.00000
 002,0.00000003,0.00000009,-0.00000002,-0.00000002,-0.00000008,0.,0.000
 00002,0.00000008,-0.00000003,-0.00000002,-0.00000006,-0.00000003,0.000
 00003,0.00000008,-0.00000004,-0.00000004,-0.00000009,-0.00000006,0.000
 00006,0.00000005,-0.00000009,-0.00000006,-0.00000010,-0.00000007,0.000
 00010,0.00000011,-0.00000008,-0.00000014,-0.00000013,-0.00000014,0.000
 00018,0.00000014,-0.00000032,-0.00000021,-0.00000017,-0.00000016,0.000
 00032,0.00000021,0.00000044,-0.00000039,-0.00000024,-0.00000048,0.0000
 0051,0.00000003,-0.00000350,-0.00000063,-0.00000030,0.00000029,0.00000
 099,0.00000111,0.00001284,-0.00000114,-0.00000077,-0.00000437,0.000001
 34,-0.00000342,-0.00006690,-0.00000206,-0.00000060,0.00000922,0.000005
 92,0.00001995,0.00030631,-0.00000356,-0.00000924,-0.00007390,0.0000098
 2,-0.00007635,-0.00144386,0.00001606,-0.00004215,0.00023261,0.00020928
 ,0.00077397,0.01156353,0.00089561,-0.00050769,0.00419906,-0.00715892,0
 .00703077,-0.03152668,0.,0.00000002,0.00000012,0.,0.,0.00000014,0.,0.,
 0.00000013,0.,0.00000001,0.00000012,0.,0.00000002,0.00000009,0.,0.0000
 0002,0.00000011,0.,0.,0.00000011,0.,-0.00000003,0.00000007,0.,-0.00000
 002,0.00000002,0.,0.,0.,0.,-0.00000002,0.,0.,0.,0.,0.,-0.00000001,0.00
 000002,0.,0.,0.00000003,0.,-0.00000001,0.00000004,0.,0.,0.00000006,0.,
 0.00000003,0.00000006,0.,0.,0.00000009,0.,-0.00000001,0.00000011,0.,0.
 ,0.00000012,0.,-0.00000003,0.00000016,0.,0.,0.00000025,0.00000001,-0.0
 0000003,0.00000025,0.,0.,0.00000014,0.00000002,-0.00000003,0.00000043,
 0.,0.00000007,0.00000136,0.00000003,-0.00000006,0.00000057,-0.00000003
 ,-0.00000020,-0.00000228,0.00000007,-0.00000005,0.00000178,0.00000008,
 0.00000127,0.00002263,0.00000010,-0.00000024,0.00000065,-0.00000044,-0
 .00000431,-0.00007395,0.00000044,0.00000081,0.00002527,-0.00000427,0.0
 0000960,0.00014484,0.00002014,-0.00004120,-0.00028185,-0.00006032,-0.0
 0048609,-0.00690138,-0.00138567,0.00088129,0.00225768,0.00745674,-0.00
 754594,0.02159932\\-0.00000059,-0.00000021,0.00000001,0.00000376,0.000
 00170,-0.00000012,-0.00000743,-0.00000348,0.00000025,0.00000982,0.0000
 0257,-0.00000021,-0.00000902,-0.00000225,0.00000018,0.00001189,0.00000
 168,-0.00000017,-0.00000964,-0.00000138,0.00000014,0.00000985,0.000001
 75,-0.00000017,-0.00000697,-0.00000098,0.00000009,0.00000579,0.0000017
 7,-0.00000015,-0.00000248,-0.00000075,0.00000005,0.00000082,0.00000162
 ,-0.00000011,0.00000213,-0.00000065,0.00000001,-0.00000377,0.00000141,
 -0.00000008,0.00000587,-0.00000070,0.,-0.00000702,0.00000120,-0.000000
 05,0.00000816,-0.00000081,-0.00000001,-0.00000848,0.00000100,-0.000000
 03,0.00000861,-0.00000094,-0.00000001,-0.00000805,0.00000080,-0.000000
 02,0.00000713,-0.00000108,0.,-0.00000588,0.00000065,-0.00000002,0.0000
 0385,-0.00000127,0.00000003,-0.00000231,0.00000063,-0.00000006,-0.0000
 0072,-0.00000154,0.00000009,0.00000214,0.00000079,-0.00000004,-0.00000
 551,-0.00000179,0.00000009,0.00000662,0.00000104,-0.00000021,-0.000009
 27,-0.00000178,0.00000023,0.00000931,0.00000141,0.00000003,-0.00001106
 ,-0.00000180,-0.00000004,0.00000887,0.00000208,-0.00000052,-0.00000913
 ,-0.00000212,0.00000053,0.00000889,0.00000058,0.00000036,-0.00000840,0
 .00000118,-0.00000085,0.00000584,0.00000306,-0.00000057,-0.00000154,-0
 .00000066,0.00000005,-0.00000156,0.00000034,-0.00000001,-0.00000137,-0
 .00000029,0.00000003,0.00000144,0.00000052,-0.00000004,-0.00000154,-0.
 00000058,0.00000004,0.00000147,0.00000015,-0.00000002,-0.00000156,-0.0
 0000044,0.00000004,0.00000122,0.00000001,0.,-0.00000124,-0.00000032,0.
 00000003,0.00000083,-0.00000009,0.,-0.00000076,-0.00000031,0.00000003,
 0.00000035,-0.00000006,0.00000001,-0.00000022,-0.00000031,0.00000003,-
 0.00000011,0.,0.00000001,0.00000027,-0.00000026,0.00000003,-0.00000049
 ,0.00000003,0.00000002,0.00000062,-0.00000017,0.00000002,-0.00000073,0
 .00000004,0.00000002,0.00000077,-0.00000012,0.00000002,-0.00000078,0.0
 0000008,0.00000002,0.00000071,-0.00000012,0.00000002,-0.00000064,0.000
 00018,0.00000001,0.00000047,-0.00000013,0.00000002,-0.00000030,0.00000
 029,0.,0.00000010,-0.00000009,0.00000002,0.00000019,0.00000034,0.,-0.0
 0000034,0.00000002,0.00000002,0.00000073,0.00000030,0.,-0.00000079,0.0
 0000008,0.00000003,0.00000119,0.00000030,-0.00000003,-0.00000114,-0.00
 000002,0.,0.00000146,0.00000041,0.00000003,-0.00000129,-0.00000008,0.0
 0000008,0.00000145,0.00000033,-0.00000009,-0.00000116,-0.00000005,-0.0
 0000003,0.00000271,-0.00000026,0.00000030,-0.00000027,-0.00000086,0.00
 000025,-0.00000178,-0.00000160,0.00000036\\\@


0EVERYBODY IS IGNORANT, ONLY ON DIFFERENT SUBJECTS.
0          WILL ROGERS
 Job cpu time:       0 days  3 hours  3 minutes 14.6 seconds.
 Elapsed time:       0 days  0 hours 45 minutes 49.1 seconds.
 File lengths (MBytes):  RWF=   3626 Int=      0 D2E=      0 Chk=     61 Scr=      1
 Normal termination of Gaussian 16 at Fri Nov 10 00:47:14 2023.
