 Entering Gaussian System, Link 0=g16
 Input=./com/19.com
 Output=./log/19.log
 Initial command:
 /home/shohei/gaussian/g16/l1.exe "/home/shohei/gaussian/scratch/Gau-17062.inp" -scrdir="/home/shohei/gaussian/scratch/"
 Entering Link 1 = /home/shohei/gaussian/g16/l1.exe PID=     17064.
  
 Copyright (c) 1988-2017, Gaussian, Inc.  All Rights Reserved.
  
 This is part of the Gaussian(R) 16 program.  It is based on
 the Gaussian(R) 09 system (copyright 2009, Gaussian, Inc.),
 the Gaussian(R) 03 system (copyright 2003, Gaussian, Inc.),
 the Gaussian(R) 98 system (copyright 1998, Gaussian, Inc.),
 the Gaussian(R) 94 system (copyright 1995, Gaussian, Inc.),
 the Gaussian 92(TM) system (copyright 1992, Gaussian, Inc.),
 the Gaussian 90(TM) system (copyright 1990, Gaussian, Inc.),
 the Gaussian 88(TM) system (copyright 1988, Gaussian, Inc.),
 the Gaussian 86(TM) system (copyright 1986, Carnegie Mellon
 University), and the Gaussian 82(TM) system (copyright 1983,
 Carnegie Mellon University). Gaussian is a federally registered
 trademark of Gaussian, Inc.
  
 This software contains proprietary and confidential information,
 including trade secrets, belonging to Gaussian, Inc.
  
 This software is provided under written license and may be
 used, copied, transmitted, or stored only in accord with that
 written license.
  
 The following legend is applicable only to US Government
 contracts under FAR:
  
                    RESTRICTED RIGHTS LEGEND
  
 Use, reproduction and disclosure by the US Government is
 subject to restrictions as set forth in subparagraphs (a)
 and (c) of the Commercial Computer Software - Restricted
 Rights clause in FAR 52.227-19.
  
 Gaussian, Inc.
 340 Quinnipiac St., Bldg. 40, Wallingford CT 06492
  
  
 ---------------------------------------------------------------
 Warning -- This program may not be used in any manner that
 competes with the business of Gaussian, Inc. or will provide
 assistance to any competitor of Gaussian, Inc.  The licensee
 of this program is prohibited from giving any competitor of
 Gaussian, Inc. access to this program.  By using this program,
 the user acknowledges that Gaussian, Inc. is engaged in the
 business of creating and licensing software in the field of
 computational chemistry and represents and warrants to the
 licensee that it is not a competitor of Gaussian, Inc. and that
 it will not use this program in any manner prohibited above.
 ---------------------------------------------------------------
  

 Cite this work as:
 Gaussian 16, Revision B.01,
 M. J. Frisch, G. W. Trucks, H. B. Schlegel, G. E. Scuseria, 
 M. A. Robb, J. R. Cheeseman, G. Scalmani, V. Barone, 
 G. A. Petersson, H. Nakatsuji, X. Li, M. Caricato, A. V. Marenich, 
 J. Bloino, B. G. Janesko, R. Gomperts, B. Mennucci, H. P. Hratchian, 
 J. V. Ortiz, A. F. Izmaylov, J. L. Sonnenberg, D. Williams-Young, 
 F. Ding, F. Lipparini, F. Egidi, J. Goings, B. Peng, A. Petrone, 
 T. Henderson, D. Ranasinghe, V. G. Zakrzewski, J. Gao, N. Rega, 
 G. Zheng, W. Liang, M. Hada, M. Ehara, K. Toyota, R. Fukuda, 
 J. Hasegawa, M. Ishida, T. Nakajima, Y. Honda, O. Kitao, H. Nakai, 
 T. Vreven, K. Throssell, J. A. Montgomery, Jr., J. E. Peralta, 
 F. Ogliaro, M. J. Bearpark, J. J. Heyd, E. N. Brothers, K. N. Kudin, 
 V. N. Staroverov, T. A. Keith, R. Kobayashi, J. Normand, 
 K. Raghavachari, A. P. Rendell, J. C. Burant, S. S. Iyengar, 
 J. Tomasi, M. Cossi, J. M. Millam, M. Klene, C. Adamo, R. Cammi, 
 J. W. Ochterski, R. L. Martin, K. Morokuma, O. Farkas, 
 J. B. Foresman, and D. J. Fox, Gaussian, Inc., Wallingford CT, 2016.
 
 ******************************************
 Gaussian 16:  EM64L-G16RevB.01 20-Dec-2017
                10-Nov-2023 
 ******************************************
 %chk=checkpoint.chk
 %nprocshared=4
 Will use up to    4 processors via shared memory.
 ---------------------------
 # B3LYP/6-31G(d,p) OPT FREQ
 ---------------------------
 1/18=20,19=15,26=3,38=1/1,3;
 2/9=110,12=2,17=6,18=5,40=1/2;
 3/5=1,6=6,7=101,11=2,25=1,30=1,71=1,74=-5/1,2,3;
 4//1;
 5/5=2,38=5/2;
 6/7=2,8=2,9=2,10=2,28=1/1;
 7//1,2,3,16;
 1/18=20,19=15,26=3/3(2);
 2/9=110/2;
 99//99;
 2/9=110/2;
 3/5=1,6=6,7=101,11=2,25=1,30=1,71=1,74=-5/1,2,3;
 4/5=5,16=3,69=1/1;
 5/5=2,38=5/2;
 7//1,2,3,16;
 1/18=20,19=15,26=3/3(-5);
 2/9=110/2;
 6/7=2,8=2,9=2,10=2,19=2,28=1/1;
 99/9=1/99;
 ------
 19poly
 ------
 Symbolic Z-matrix:
 Charge =  0 Multiplicity = 1
 C                    -2.37509   1.12665   0.01605 
 C                    -1.16058   1.67951  -0.02316 
 C                     0.05904   0.84689   0.01785 
 C                     1.27576   1.40582  -0.02182 
 C                     2.49606   0.57332   0.01917 
 C                     3.71286   1.13218  -0.02072 
 C                     4.9331    0.2996    0.02025 
 C                     6.14988   0.85845  -0.01993 
 C                     7.37021   0.02597   0.02102 
 C                     8.58683   0.5851   -0.01952 
 C                     9.80754  -0.24685   0.02142 
 C                     11.02377   0.31311  -0.01952 
 C                     12.24533  -0.51761   0.02143 
 C                     13.46077   0.04398  -0.01988 
 C                     14.68381  -0.78458   0.02108 
 C                     15.898   -0.22032  -0.02056 
 C                     17.12326  -1.04559   0.02047 
 C                     18.33566  -0.47751  -0.02144 
 C                     19.56392  -1.29829   0.01968 
 C                     20.77396  -0.72519  -0.02239 
 C                     22.00599  -1.54029   0.01885 
 C                     23.21315  -0.96112  -0.0233 
 C                     24.44956  -1.76952   0.0181 
 C                     25.65339  -1.18343  -0.02404 
 C                     26.89458  -1.98443   0.01753 
 C                     28.09483  -1.39099  -0.02453 
 C                     29.34091  -2.18429   0.01723 
 C                     30.53753  -1.58352  -0.02471 
 C                     31.78829  -2.36937   0.01722 
 C                     32.98149  -1.76179  -0.02457 
 C                     34.2364  -2.54095   0.01752 
 C                     35.42665  -1.92758  -0.02416 
 C                     36.68489  -2.70129   0.01806 
 C                     37.87286  -2.08349  -0.02354 
 C                     39.13348  -2.85333   0.01877 
 C                     40.31994  -2.23268  -0.02282 
 C                     41.58164  -3.00037   0.01955 
 C                     42.76652  -2.38098  -0.0219 
 H                    -3.25853   1.75613  -0.01519 
 H                    -2.50062   0.04971   0.07916 
 H                    -1.0766    2.76116  -0.08631 
 H                    -0.03755  -0.23467   0.08114 
 H                     1.37147   2.48745  -0.08514 
 H                     2.40016  -0.50827   0.0826 
 H                     3.80878   2.21377  -0.08421 
 H                     4.83718  -0.78197   0.08391 
 H                     6.24574   1.94003  -0.08365 
 H                     7.27451  -1.0556    0.08496 
 H                     8.68232   1.6667   -0.08353 
 H                     9.7125   -1.32845   0.08567 
 H                     11.11834   1.39478  -0.08383 
 H                     12.15161  -1.5993    0.08601 
 H                     13.55367   1.12579  -0.08451 
 H                     14.5923  -1.86642   0.08599 
 H                     15.98828   0.8617   -0.08548 
 H                     17.03495  -2.12768   0.08566 
 H                     18.42228   0.6048   -0.08661 
 H                     19.47988  -2.38069   0.08512 
 H                     20.85589   0.35748  -0.08778 
 H                     21.92719  -2.62308   0.08447 
 H                     23.28947   0.12196  -0.08884 
 H                     24.37678  -2.85271   0.08385 
 H                     25.72342  -0.09994  -0.08968 
 H                     26.82833  -3.06803   0.08336 
 H                     28.15825  -0.30709  -0.09023 
 H                     29.28127  -3.26828   0.08309 
 H                     30.59443  -0.49927  -0.09044 
 H                     31.73491  -3.45369   0.08309 
 H                     33.03243  -0.67724  -0.09033 
 H                     34.18847  -3.62554   0.08339 
 H                     35.47258  -0.84281  -0.08994 
 H                     36.64126  -3.78607   0.08394 
 H                     37.91508  -0.99859  -0.08936 
 H                     39.09285  -3.93824   0.08467 
 H                     40.36014  -1.1477   -0.08869 
 H                     41.54765  -4.0851    0.08545 
 H                     42.81845  -1.29732  -0.08778 
 H                     43.75507  -2.99826   0.01131 
 

 GradGradGradGradGradGradGradGradGradGradGradGradGradGradGradGradGradGrad
 Berny optimization.
 Initialization pass.
                           ----------------------------
                           !    Initial Parameters    !
                           ! (Angstroms and Degrees)  !
 --------------------------                            --------------------------
 ! Name  Definition              Value          Derivative Info.                !
 --------------------------------------------------------------------------------
 ! R1    R(1,2)                  1.335          estimate D2E/DX2                !
 ! R2    R(1,39)                 1.0852         estimate D2E/DX2                !
 ! R3    R(1,40)                 1.0861         estimate D2E/DX2                !
 ! R4    R(2,3)                  1.4773         estimate D2E/DX2                !
 ! R5    R(2,41)                 1.0867         estimate D2E/DX2                !
 ! R6    R(3,4)                  1.3395         estimate D2E/DX2                !
 ! R7    R(3,42)                 1.0877         estimate D2E/DX2                !
 ! R8    R(4,5)                  1.4778         estimate D2E/DX2                !
 ! R9    R(4,43)                 1.0877         estimate D2E/DX2                !
 ! R10   R(5,6)                  1.3396         estimate D2E/DX2                !
 ! R11   R(5,44)                 1.0877         estimate D2E/DX2                !
 ! R12   R(6,7)                  1.4778         estimate D2E/DX2                !
 ! R13   R(6,45)                 1.0877         estimate D2E/DX2                !
 ! R14   R(7,8)                  1.3396         estimate D2E/DX2                !
 ! R15   R(7,46)                 1.0877         estimate D2E/DX2                !
 ! R16   R(8,9)                  1.4778         estimate D2E/DX2                !
 ! R17   R(8,47)                 1.0877         estimate D2E/DX2                !
 ! R18   R(9,10)                 1.3396         estimate D2E/DX2                !
 ! R19   R(9,48)                 1.0877         estimate D2E/DX2                !
 ! R20   R(10,11)                1.4778         estimate D2E/DX2                !
 ! R21   R(10,49)                1.0877         estimate D2E/DX2                !
 ! R22   R(11,12)                1.3396         estimate D2E/DX2                !
 ! R23   R(11,50)                1.0877         estimate D2E/DX2                !
 ! R24   R(12,13)                1.4778         estimate D2E/DX2                !
 ! R25   R(12,51)                1.0877         estimate D2E/DX2                !
 ! R26   R(13,14)                1.3396         estimate D2E/DX2                !
 ! R27   R(13,52)                1.0877         estimate D2E/DX2                !
 ! R28   R(14,15)                1.4778         estimate D2E/DX2                !
 ! R29   R(14,53)                1.0877         estimate D2E/DX2                !
 ! R30   R(15,16)                1.3395         estimate D2E/DX2                !
 ! R31   R(15,54)                1.0877         estimate D2E/DX2                !
 ! R32   R(16,17)                1.4778         estimate D2E/DX2                !
 ! R33   R(16,55)                1.0877         estimate D2E/DX2                !
 ! R34   R(17,18)                1.3395         estimate D2E/DX2                !
 ! R35   R(17,56)                1.0876         estimate D2E/DX2                !
 ! R36   R(18,19)                1.4778         estimate D2E/DX2                !
 ! R37   R(18,57)                1.0877         estimate D2E/DX2                !
 ! R38   R(19,20)                1.3396         estimate D2E/DX2                !
 ! R39   R(19,58)                1.0876         estimate D2E/DX2                !
 ! R40   R(20,21)                1.4778         estimate D2E/DX2                !
 ! R41   R(20,59)                1.0877         estimate D2E/DX2                !
 ! R42   R(21,22)                1.3396         estimate D2E/DX2                !
 ! R43   R(21,60)                1.0876         estimate D2E/DX2                !
 ! R44   R(22,23)                1.4778         estimate D2E/DX2                !
 ! R45   R(22,61)                1.0877         estimate D2E/DX2                !
 ! R46   R(23,24)                1.3396         estimate D2E/DX2                !
 ! R47   R(23,62)                1.0876         estimate D2E/DX2                !
 ! R48   R(24,25)                1.4778         estimate D2E/DX2                !
 ! R49   R(24,63)                1.0877         estimate D2E/DX2                !
 ! R50   R(25,26)                1.3396         estimate D2E/DX2                !
 ! R51   R(25,64)                1.0876         estimate D2E/DX2                !
 ! R52   R(26,27)                1.4778         estimate D2E/DX2                !
 ! R53   R(26,65)                1.0877         estimate D2E/DX2                !
 ! R54   R(27,28)                1.3396         estimate D2E/DX2                !
 ! R55   R(27,66)                1.0876         estimate D2E/DX2                !
 ! R56   R(28,29)                1.4777         estimate D2E/DX2                !
 ! R57   R(28,67)                1.0877         estimate D2E/DX2                !
 ! R58   R(29,30)                1.3396         estimate D2E/DX2                !
 ! R59   R(29,68)                1.0876         estimate D2E/DX2                !
 ! R60   R(30,31)                1.4777         estimate D2E/DX2                !
 ! R61   R(30,69)                1.0877         estimate D2E/DX2                !
 ! R62   R(31,32)                1.3397         estimate D2E/DX2                !
 ! R63   R(31,70)                1.0876         estimate D2E/DX2                !
 ! R64   R(32,33)                1.4777         estimate D2E/DX2                !
 ! R65   R(32,71)                1.0877         estimate D2E/DX2                !
 ! R66   R(33,34)                1.3397         estimate D2E/DX2                !
 ! R67   R(33,72)                1.0876         estimate D2E/DX2                !
 ! R68   R(34,35)                1.4777         estimate D2E/DX2                !
 ! R69   R(34,73)                1.0877         estimate D2E/DX2                !
 ! R70   R(35,36)                1.3396         estimate D2E/DX2                !
 ! R71   R(35,74)                1.0877         estimate D2E/DX2                !
 ! R72   R(36,37)                1.4775         estimate D2E/DX2                !
 ! R73   R(36,75)                1.0877         estimate D2E/DX2                !
 ! R74   R(37,38)                1.3376         estimate D2E/DX2                !
 ! R75   R(37,76)                1.0873         estimate D2E/DX2                !
 ! R76   R(38,77)                1.0869         estimate D2E/DX2                !
 ! R77   R(38,78)                1.1659         estimate D2E/DX2                !
 ! A1    A(2,1,39)             119.9693         estimate D2E/DX2                !
 ! A2    A(2,1,40)             121.1653         estimate D2E/DX2                !
 ! A3    A(39,1,40)            118.8653         estimate D2E/DX2                !
 ! A4    A(1,2,3)              121.1207         estimate D2E/DX2                !
 ! A5    A(1,2,41)             118.9599         estimate D2E/DX2                !
 ! A6    A(3,2,41)             119.9194         estimate D2E/DX2                !
 ! A7    A(2,3,4)              120.923          estimate D2E/DX2                !
 ! A8    A(2,3,42)             119.2568         estimate D2E/DX2                !
 ! A9    A(4,3,42)             119.8202         estimate D2E/DX2                !
 ! A10   A(3,4,5)              120.9415         estimate D2E/DX2                !
 ! A11   A(3,4,43)             119.7735         estimate D2E/DX2                !
 ! A12   A(5,4,43)             119.285          estimate D2E/DX2                !
 ! A13   A(4,5,6)              120.9447         estimate D2E/DX2                !
 ! A14   A(4,5,44)             119.2744         estimate D2E/DX2                !
 ! A15   A(6,5,44)             119.7809         estimate D2E/DX2                !
 ! A16   A(5,6,7)              120.941          estimate D2E/DX2                !
 ! A17   A(5,6,45)             119.7818         estimate D2E/DX2                !
 ! A18   A(7,6,45)             119.2772         estimate D2E/DX2                !
 ! A19   A(6,7,8)              120.9408         estimate D2E/DX2                !
 ! A20   A(6,7,46)             119.2777         estimate D2E/DX2                !
 ! A21   A(8,7,46)             119.7815         estimate D2E/DX2                !
 ! A22   A(7,8,9)              120.9462         estimate D2E/DX2                !
 ! A23   A(7,8,47)             119.7789         estimate D2E/DX2                !
 ! A24   A(9,8,47)             119.2748         estimate D2E/DX2                !
 ! A25   A(8,9,10)             120.932          estimate D2E/DX2                !
 ! A26   A(8,9,48)             119.2835         estimate D2E/DX2                !
 ! A27   A(10,9,48)            119.7845         estimate D2E/DX2                !
 ! A28   A(9,10,11)            120.9574         estimate D2E/DX2                !
 ! A29   A(9,10,49)            119.7733         estimate D2E/DX2                !
 ! A30   A(11,10,49)           119.2692         estimate D2E/DX2                !
 ! A31   A(10,11,12)           120.9172         estimate D2E/DX2                !
 ! A32   A(10,11,50)           119.2927         estimate D2E/DX2                !
 ! A33   A(12,11,50)           119.7901         estimate D2E/DX2                !
 ! A34   A(11,12,13)           120.9749         estimate D2E/DX2                !
 ! A35   A(11,12,51)           119.7651         estimate D2E/DX2                !
 ! A36   A(13,12,51)           119.26           estimate D2E/DX2                !
 ! A37   A(12,13,14)           120.8966         estimate D2E/DX2                !
 ! A38   A(12,13,52)           119.3053         estimate D2E/DX2                !
 ! A39   A(14,13,52)           119.7982         estimate D2E/DX2                !
 ! A40   A(13,14,15)           120.9978         estimate D2E/DX2                !
 ! A41   A(13,14,53)           119.7547         estimate D2E/DX2                !
 ! A42   A(15,14,53)           119.2475         estimate D2E/DX2                !
 ! A43   A(14,15,16)           120.8713         estimate D2E/DX2                !
 ! A44   A(14,15,54)           119.3202         estimate D2E/DX2                !
 ! A45   A(16,15,54)           119.8085         estimate D2E/DX2                !
 ! A46   A(15,16,17)           121.0246         estimate D2E/DX2                !
 ! A47   A(15,16,55)           119.7429         estimate D2E/DX2                !
 ! A48   A(17,16,55)           119.2325         estimate D2E/DX2                !
 ! A49   A(16,17,18)           120.8434         estimate D2E/DX2                !
 ! A50   A(16,17,56)           119.3363         estimate D2E/DX2                !
 ! A51   A(18,17,56)           119.8203         estimate D2E/DX2                !
 ! A52   A(17,18,19)           121.0528         estimate D2E/DX2                !
 ! A53   A(17,18,57)           119.7309         estimate D2E/DX2                !
 ! A54   A(19,18,57)           119.2163         estimate D2E/DX2                !
 ! A55   A(18,19,20)           120.8158         estimate D2E/DX2                !
 ! A56   A(18,19,58)           119.3518         estimate D2E/DX2                !
 ! A57   A(20,19,58)           119.8324         estimate D2E/DX2                !
 ! A58   A(19,20,21)           121.0794         estimate D2E/DX2                !
 ! A59   A(19,20,59)           119.72           estimate D2E/DX2                !
 ! A60   A(21,20,59)           119.2006         estimate D2E/DX2                !
 ! A61   A(20,21,22)           120.7916         estimate D2E/DX2                !
 ! A62   A(20,21,60)           119.365          estimate D2E/DX2                !
 ! A63   A(22,21,60)           119.8434         estimate D2E/DX2                !
 ! A64   A(21,22,23)           121.1011         estimate D2E/DX2                !
 ! A65   A(21,22,61)           119.7116         estimate D2E/DX2                !
 ! A66   A(23,22,61)           119.1872         estimate D2E/DX2                !
 ! A67   A(22,23,24)           120.7739         estimate D2E/DX2                !
 ! A68   A(22,23,62)           119.374          estimate D2E/DX2                !
 ! A69   A(24,23,62)           119.8521         estimate D2E/DX2                !
 ! A70   A(23,24,25)           121.1149         estimate D2E/DX2                !
 ! A71   A(23,24,63)           119.707          estimate D2E/DX2                !
 ! A72   A(25,24,63)           119.178          estimate D2E/DX2                !
 ! A73   A(24,25,26)           120.7657         estimate D2E/DX2                !
 ! A74   A(24,25,64)           119.3773         estimate D2E/DX2                !
 ! A75   A(26,25,64)           119.857          estimate D2E/DX2                !
 ! A76   A(25,26,27)           121.1182         estimate D2E/DX2                !
 ! A77   A(25,26,65)           119.7072         estimate D2E/DX2                !
 ! A78   A(27,26,65)           119.1746         estimate D2E/DX2                !
 ! A79   A(26,27,28)           120.7689         estimate D2E/DX2                !
 ! A80   A(26,27,66)           119.3739         estimate D2E/DX2                !
 ! A81   A(28,27,66)           119.8571         estimate D2E/DX2                !
 ! A82   A(27,28,29)           121.1093         estimate D2E/DX2                !
 ! A83   A(27,28,67)           119.7126         estimate D2E/DX2                !
 ! A84   A(29,28,67)           119.178          estimate D2E/DX2                !
 ! A85   A(28,29,30)           120.7843         estimate D2E/DX2                !
 ! A86   A(28,29,68)           119.3636         estimate D2E/DX2                !
 ! A87   A(30,29,68)           119.852          estimate D2E/DX2                !
 ! A88   A(29,30,31)           121.0886         estimate D2E/DX2                !
 ! A89   A(29,30,69)           119.723          estimate D2E/DX2                !
 ! A90   A(31,30,69)           119.1885         estimate D2E/DX2                !
 ! A91   A(30,31,32)           120.8109         estimate D2E/DX2                !
 ! A92   A(30,31,70)           119.3472         estimate D2E/DX2                !
 ! A93   A(32,31,70)           119.8419         estimate D2E/DX2                !
 ! A94   A(31,32,33)           121.0578         estimate D2E/DX2                !
 ! A95   A(31,32,71)           119.7371         estimate D2E/DX2                !
 ! A96   A(33,32,71)           119.2051         estimate D2E/DX2                !
 ! A97   A(32,33,34)           120.8455         estimate D2E/DX2                !
 ! A98   A(32,33,72)           119.3267         estimate D2E/DX2                !
 ! A99   A(34,33,72)           119.8277         estimate D2E/DX2                !
 ! A100  A(33,34,35)           121.0215         estimate D2E/DX2                !
 ! A101  A(33,34,73)           119.753          estimate D2E/DX2                !
 ! A102  A(35,34,73)           119.2255         estimate D2E/DX2                !
 ! A103  A(34,35,36)           120.8837         estimate D2E/DX2                !
 ! A104  A(34,35,74)           119.3087         estimate D2E/DX2                !
 ! A105  A(36,35,74)           119.8076         estimate D2E/DX2                !
 ! A106  A(35,36,37)           120.9763         estimate D2E/DX2                !
 ! A107  A(35,36,75)           119.7846         estimate D2E/DX2                !
 ! A108  A(37,36,75)           119.2391         estimate D2E/DX2                !
 ! A109  A(36,37,38)           120.993          estimate D2E/DX2                !
 ! A110  A(36,37,76)           119.5653         estimate D2E/DX2                !
 ! A111  A(38,37,76)           119.4417         estimate D2E/DX2                !
 ! A112  A(37,38,77)           120.3888         estimate D2E/DX2                !
 ! A113  A(37,38,78)           120.3317         estimate D2E/DX2                !
 ! A114  A(77,38,78)           119.2795         estimate D2E/DX2                !
 ! D1    D(39,1,2,3)          -179.9998         estimate D2E/DX2                !
 ! D2    D(39,1,2,41)           -0.0002         estimate D2E/DX2                !
 ! D3    D(40,1,2,3)            -0.0004         estimate D2E/DX2                !
 ! D4    D(40,1,2,41)          179.9992         estimate D2E/DX2                !
 ! D5    D(1,2,3,4)            179.9947         estimate D2E/DX2                !
 ! D6    D(1,2,3,42)            -0.0039         estimate D2E/DX2                !
 ! D7    D(41,2,3,4)            -0.0049         estimate D2E/DX2                !
 ! D8    D(41,2,3,42)          179.9965         estimate D2E/DX2                !
 ! D9    D(2,3,4,5)           -179.9994         estimate D2E/DX2                !
 ! D10   D(2,3,4,43)            -0.0007         estimate D2E/DX2                !
 ! D11   D(42,3,4,5)            -0.0007         estimate D2E/DX2                !
 ! D12   D(42,3,4,43)          179.9979         estimate D2E/DX2                !
 ! D13   D(3,4,5,6)            179.9894         estimate D2E/DX2                !
 ! D14   D(3,4,5,44)            -0.0084         estimate D2E/DX2                !
 ! D15   D(43,4,5,6)            -0.0093         estimate D2E/DX2                !
 ! D16   D(43,4,5,44)          179.9929         estimate D2E/DX2                !
 ! D17   D(4,5,6,7)           -179.999          estimate D2E/DX2                !
 ! D18   D(4,5,6,45)            -0.001          estimate D2E/DX2                !
 ! D19   D(44,5,6,7)            -0.0013         estimate D2E/DX2                !
 ! D20   D(44,5,6,45)          179.9967         estimate D2E/DX2                !
 ! D21   D(5,6,7,8)            179.9851         estimate D2E/DX2                !
 ! D22   D(5,6,7,46)            -0.0123         estimate D2E/DX2                !
 ! D23   D(45,6,7,8)            -0.0129         estimate D2E/DX2                !
 ! D24   D(45,6,7,46)          179.9897         estimate D2E/DX2                !
 ! D25   D(6,7,8,9)           -179.9994         estimate D2E/DX2                !
 ! D26   D(6,7,8,47)            -0.0015         estimate D2E/DX2                !
 ! D27   D(46,7,8,9)            -0.002          estimate D2E/DX2                !
 ! D28   D(46,7,8,47)          179.9959         estimate D2E/DX2                !
 ! D29   D(7,8,9,10)           179.9828         estimate D2E/DX2                !
 ! D30   D(7,8,9,48)            -0.015          estimate D2E/DX2                !
 ! D31   D(47,8,9,10)           -0.0151         estimate D2E/DX2                !
 ! D32   D(47,8,9,48)          179.987          estimate D2E/DX2                !
 ! D33   D(8,9,10,11)          179.9991         estimate D2E/DX2                !
 ! D34   D(8,9,10,49)           -0.0021         estimate D2E/DX2                !
 ! D35   D(48,9,10,11)          -0.003          estimate D2E/DX2                !
 ! D36   D(48,9,10,49)         179.9957         estimate D2E/DX2                !
 ! D37   D(9,10,11,12)         179.983          estimate D2E/DX2                !
 ! D38   D(9,10,11,50)          -0.0163         estimate D2E/DX2                !
 ! D39   D(49,10,11,12)         -0.0158         estimate D2E/DX2                !
 ! D40   D(49,10,11,50)        179.985          estimate D2E/DX2                !
 ! D41   D(10,11,12,13)        179.9964         estimate D2E/DX2                !
 ! D42   D(10,11,12,51)         -0.0031         estimate D2E/DX2                !
 ! D43   D(50,11,12,13)         -0.0044         estimate D2E/DX2                !
 ! D44   D(50,11,12,51)        179.9962         estimate D2E/DX2                !
 ! D45   D(11,12,13,14)        179.9858         estimate D2E/DX2                !
 ! D46   D(11,12,13,52)         -0.0158         estimate D2E/DX2                !
 ! D47   D(51,12,13,14)         -0.0148         estimate D2E/DX2                !
 ! D48   D(51,12,13,52)        179.9837         estimate D2E/DX2                !
 ! D49   D(12,13,14,15)        179.9926         estimate D2E/DX2                !
 ! D50   D(12,13,14,53)         -0.0043         estimate D2E/DX2                !
 ! D51   D(52,13,14,15)         -0.0059         estimate D2E/DX2                !
 ! D52   D(52,13,14,53)        179.9973         estimate D2E/DX2                !
 ! D53   D(13,14,15,16)        179.9909         estimate D2E/DX2                !
 ! D54   D(13,14,15,54)         -0.0137         estimate D2E/DX2                !
 ! D55   D(53,14,15,16)         -0.0123         estimate D2E/DX2                !
 ! D56   D(53,14,15,54)        179.9831         estimate D2E/DX2                !
 ! D57   D(14,15,16,17)        179.9879         estimate D2E/DX2                !
 ! D58   D(14,15,16,55)         -0.0057         estimate D2E/DX2                !
 ! D59   D(54,15,16,17)         -0.0075         estimate D2E/DX2                !
 ! D60   D(54,15,16,55)        179.999          estimate D2E/DX2                !
 ! D61   D(15,16,17,18)        179.9978         estimate D2E/DX2                !
 ! D62   D(15,16,17,56)         -0.0104         estimate D2E/DX2                !
 ! D63   D(55,16,17,18)         -0.0086         estimate D2E/DX2                !
 ! D64   D(55,16,17,56)        179.9832         estimate D2E/DX2                !
 ! D65   D(16,17,18,19)        179.9828         estimate D2E/DX2                !
 ! D66   D(16,17,18,57)         -0.0072         estimate D2E/DX2                !
 ! D67   D(56,17,18,19)         -0.009          estimate D2E/DX2                !
 ! D68   D(56,17,18,57)       -179.999          estimate D2E/DX2                !
 ! D69   D(17,18,19,20)       -179.9944         estimate D2E/DX2                !
 ! D70   D(17,18,19,58)         -0.0062         estimate D2E/DX2                !
 ! D71   D(57,18,19,20)         -0.0043         estimate D2E/DX2                !
 ! D72   D(57,18,19,58)        179.9839         estimate D2E/DX2                !
 ! D73   D(18,19,20,21)        179.9779         estimate D2E/DX2                !
 ! D74   D(18,19,20,59)         -0.0087         estimate D2E/DX2                !
 ! D75   D(58,19,20,21)         -0.0103         estimate D2E/DX2                !
 ! D76   D(58,19,20,59)       -179.9969         estimate D2E/DX2                !
 ! D77   D(19,20,21,22)       -179.9866         estimate D2E/DX2                !
 ! D78   D(19,20,21,60)         -0.0016         estimate D2E/DX2                !
 ! D79   D(59,20,21,22)          0.0001         estimate D2E/DX2                !
 ! D80   D(59,20,21,60)        179.985          estimate D2E/DX2                !
 ! D81   D(20,21,22,23)        179.9737         estimate D2E/DX2                !
 ! D82   D(20,21,22,61)         -0.01           estimate D2E/DX2                !
 ! D83   D(60,21,22,23)         -0.0112         estimate D2E/DX2                !
 ! D84   D(60,21,22,61)       -179.9949         estimate D2E/DX2                !
 ! D85   D(21,22,23,24)       -179.9798         estimate D2E/DX2                !
 ! D86   D(21,22,23,62)          0.0027         estimate D2E/DX2                !
 ! D87   D(61,22,23,24)          0.004          estimate D2E/DX2                !
 ! D88   D(61,22,23,62)        179.9864         estimate D2E/DX2                !
 ! D89   D(22,23,24,25)        179.9708         estimate D2E/DX2                !
 ! D90   D(22,23,24,63)         -0.011          estimate D2E/DX2                !
 ! D91   D(62,23,24,25)         -0.0115         estimate D2E/DX2                !
 ! D92   D(62,23,24,63)       -179.9933         estimate D2E/DX2                !
 ! D93   D(23,24,25,26)       -179.9748         estimate D2E/DX2                !
 ! D94   D(23,24,25,64)          0.0062         estimate D2E/DX2                !
 ! D95   D(63,24,25,26)          0.007          estimate D2E/DX2                !
 ! D96   D(63,24,25,64)        179.988          estimate D2E/DX2                !
 ! D97   D(24,25,26,27)        179.9697         estimate D2E/DX2                !
 ! D98   D(24,25,26,65)         -0.0114         estimate D2E/DX2                !
 ! D99   D(64,25,26,27)         -0.0113         estimate D2E/DX2                !
 ! D100  D(64,25,26,65)       -179.9923         estimate D2E/DX2                !
 ! D101  D(25,26,27,28)       -179.9726         estimate D2E/DX2                !
 ! D102  D(25,26,27,66)          0.0085         estimate D2E/DX2                !
 ! D103  D(65,26,27,28)          0.0086         estimate D2E/DX2                !
 ! D104  D(65,26,27,66)        179.9897         estimate D2E/DX2                !
 ! D105  D(26,27,28,29)        179.9707         estimate D2E/DX2                !
 ! D106  D(26,27,28,67)         -0.0112         estimate D2E/DX2                !
 ! D107  D(66,27,28,29)         -0.0103         estimate D2E/DX2                !
 ! D108  D(66,27,28,67)       -179.9922         estimate D2E/DX2                !
 ! D109  D(27,28,29,30)       -179.9734         estimate D2E/DX2                !
 ! D110  D(27,28,29,68)          0.0092         estimate D2E/DX2                !
 ! D111  D(67,28,29,30)          0.0086         estimate D2E/DX2                !
 ! D112  D(67,28,29,68)        179.9912         estimate D2E/DX2                !
 ! D113  D(28,29,30,31)        179.9738         estimate D2E/DX2                !
 ! D114  D(28,29,30,69)         -0.0104         estimate D2E/DX2                !
 ! D115  D(68,29,30,31)         -0.0087         estimate D2E/DX2                !
 ! D116  D(68,29,30,69)       -179.9929         estimate D2E/DX2                !
 ! D117  D(29,30,31,32)       -179.9773         estimate D2E/DX2                !
 ! D118  D(29,30,31,70)          0.0083         estimate D2E/DX2                !
 ! D119  D(69,30,31,32)          0.007          estimate D2E/DX2                !
 ! D120  D(69,30,31,70)        179.9925         estimate D2E/DX2                !
 ! D121  D(30,31,32,33)        179.9788         estimate D2E/DX2                !
 ! D122  D(30,31,32,71)         -0.0089         estimate D2E/DX2                !
 ! D123  D(70,31,32,33)         -0.0067         estimate D2E/DX2                !
 ! D124  D(70,31,32,71)       -179.9943         estimate D2E/DX2                !
 ! D125  D(31,32,33,34)       -179.9835         estimate D2E/DX2                !
 ! D126  D(31,32,33,72)          0.0059         estimate D2E/DX2                !
 ! D127  D(71,32,33,34)          0.0042         estimate D2E/DX2                !
 ! D128  D(71,32,33,72)        179.9936         estimate D2E/DX2                !
 ! D129  D(32,33,34,35)        179.985          estimate D2E/DX2                !
 ! D130  D(32,33,34,73)         -0.0068         estimate D2E/DX2                !
 ! D131  D(72,33,34,35)         -0.0044         estimate D2E/DX2                !
 ! D132  D(72,33,34,73)       -179.9962         estimate D2E/DX2                !
 ! D133  D(33,34,35,36)       -179.9907         estimate D2E/DX2                !
 ! D134  D(33,34,35,74)          0.0029         estimate D2E/DX2                !
 ! D135  D(73,34,35,36)          0.0011         estimate D2E/DX2                !
 ! D136  D(73,34,35,74)        179.9947         estimate D2E/DX2                !
 ! D137  D(34,35,36,37)        179.9914         estimate D2E/DX2                !
 ! D138  D(34,35,36,75)         -0.0045         estimate D2E/DX2                !
 ! D139  D(74,35,36,37)         -0.0022         estimate D2E/DX2                !
 ! D140  D(74,35,36,75)       -179.998          estimate D2E/DX2                !
 ! D141  D(35,36,37,38)       -179.997          estimate D2E/DX2                !
 ! D142  D(35,36,37,76)          0.0002         estimate D2E/DX2                !
 ! D143  D(75,36,37,38)         -0.0011         estimate D2E/DX2                !
 ! D144  D(75,36,37,76)        179.9961         estimate D2E/DX2                !
 ! D145  D(36,37,38,77)         -0.0022         estimate D2E/DX2                !
 ! D146  D(36,37,38,78)       -179.9462         estimate D2E/DX2                !
 ! D147  D(76,37,38,77)       -179.9994         estimate D2E/DX2                !
 ! D148  D(76,37,38,78)          0.0566         estimate D2E/DX2                !
 --------------------------------------------------------------------------------
 Trust Radius=3.00D-01 FncErr=1.00D-07 GrdErr=1.00D-06 EigMax=2.50D+02 EigMin=1.00D-04
 Number of steps in this run=    349 maximum allowed number of steps=    468.
 GradGradGradGradGradGradGradGradGradGradGradGradGradGradGradGradGradGrad

 Stoichiometry    C38H40
 Framework group  C1[X(C38H40)]
 Deg. of freedom   228
 Full point group                 C1      NOp   1
 Largest Abelian subgroup         C1      NOp   1
 Largest concise Abelian subgroup C1      NOp   1
                         Standard orientation:                         
 ---------------------------------------------------------------------
 Center     Atomic      Atomic             Coordinates (Angstroms)
 Number     Number       Type             X           Y           Z
 ---------------------------------------------------------------------
      1          6           0       22.645474    0.120506    0.007816
      2          6           0       21.487735   -0.544220    0.006816
      3          6           0       20.195870    0.172361    0.006973
      4          6           0       19.036494   -0.498634    0.005861
      5          6           0       17.743962    0.217774    0.006004
      6          6           0       16.584509   -0.453177    0.004679
      7          6           0       15.292026    0.263316    0.004801
      8          6           0       14.132586   -0.407632    0.003178
      9          6           0       12.840027    0.308743    0.003287
     10          6           0       11.680762   -0.362488    0.001320
     11          6           0       10.387874    0.353319    0.001447
     12          6           0        9.229089   -0.318720   -0.000862
     13          6           0        7.935470    0.395791   -0.000658
     14          6           0        6.777611   -0.277826   -0.003255
     15          6           0        5.482723    0.434404   -0.002894
     16          6           0        4.326359   -0.241765   -0.005678
     17          6           0        3.029566    0.467000   -0.005059
     18          6           0        1.875344   -0.212822   -0.007896
     19          6           0        0.575972    0.491199   -0.006912
     20          6           0       -0.575433   -0.193392   -0.009647
     21          6           0       -1.878023    0.504639   -0.008193
     22          6           0       -3.025984   -0.185734   -0.010675
     23          6           0       -4.332312    0.505239   -0.008661
     24          6           0       -5.476326   -0.191688   -0.010757
     25          6           0       -6.786723    0.491487   -0.008121
     26          6           0       -7.926484   -0.212412   -0.009736
     27          6           0       -9.241035    0.462674   -0.006454
     28          6           0      -10.376501   -0.248171   -0.007544
     29          6           0      -11.695014    0.419079   -0.003634
     30          6           0      -12.826444   -0.298206   -0.004217
     31          6           0      -14.148459    0.362021    0.000256
     32          6           0      -15.276410   -0.360748    0.000105
     33          6           0      -16.601244    0.293766    0.005034
     34          6           0      -17.726514   -0.433183    0.005194
     35          6           0      -19.053355    0.217258    0.010446
     36          6           0      -20.176851   -0.512384    0.010780
     37          6           0      -21.504568    0.135826    0.016218
     38          6           0      -22.626608   -0.592405    0.016613
     39          1           0       23.583703   -0.424855    0.007678
     40          1           0       22.670163    1.206287    0.008766
     41          1           0       21.504858   -1.630829    0.005868
     42          1           0       20.191310    1.260058    0.007985
     43          1           0       19.041939   -1.586322    0.004816
     44          1           0       17.738717    1.305444    0.007167
     45          1           0       16.589735   -1.540853    0.003462
     46          1           0       15.286791    1.350981    0.006188
     47          1           0       14.137869   -1.495311    0.001724
     48          1           0       12.834579    1.396401    0.004957
     49          1           0       11.686423   -1.450168   -0.000420
     50          1           0       10.381767    1.440967    0.003436
     51          1           0        9.235670   -1.406400   -0.002913
     52          1           0        7.928030    1.483422    0.001662
     53          1           0        6.785876   -1.365501   -0.005620
     54          1           0        5.473079    1.522008   -0.000252
     55          1           0        4.337249   -1.329425   -0.008336
     56          1           0        3.016707    1.554561   -0.002125
     57          1           0        1.889901   -1.300445   -0.010812
     58          1           0        0.558845    1.578693   -0.003731
     59          1           0       -0.556172   -1.280950   -0.012775
     60          1           0       -1.900402    1.592030   -0.004819
     61          1           0       -3.001101   -1.273183   -0.013964
     62          1           0       -4.360738    1.592485   -0.005148
     63          1           0       -5.445145   -1.278977   -0.014159
     64          1           0       -6.821682    1.578541   -0.004520
     65          1           0       -7.888680   -1.299491   -0.013213
     66          1           0       -9.282616    1.549498   -0.002804
     67          1           0      -10.332175   -1.335000   -0.011069
     68          1           0      -11.742855    1.505651    0.000040
     69          1           0      -12.776150   -1.384770   -0.007778
     70          1           0      -14.201758    1.448346    0.003945
     71          1           0      -15.221119   -1.447062   -0.003495
     72          1           0      -16.658838    1.379881    0.008743
     73          1           0      -17.667500   -1.519293    0.001545
     74          1           0      -19.113943    1.303224    0.014186
     75          1           0      -20.115822   -1.598383    0.007071
     76          1           0      -21.571749    1.221006    0.020004
     77          1           0      -22.577388   -1.678185    0.012880
     78          1           0      -23.668354   -0.068833    0.019984
 ---------------------------------------------------------------------
 Rotational constants (GHZ):           3.5682013           0.0055879           0.0055791
 Standard basis: 6-31G(d,p) (6D, 7F)
 There are   770 symmetry adapted cartesian basis functions of A   symmetry.
 There are   770 symmetry adapted basis functions of A   symmetry.
   770 basis functions,  1344 primitive gaussians,   770 cartesian basis functions
   134 alpha electrons      134 beta electrons
       nuclear repulsion energy      2543.0563356536 Hartrees.
 NAtoms=   78 NActive=   78 NUniq=   78 SFac= 1.00D+00 NAtFMM=   60 NAOKFM=T Big=T
 Integral buffers will be    131072 words long.
 Raffenetti 2 integral format.
 Two-electron integral symmetry is turned on.
 One-electron integrals computed using PRISM.
 NBasis=   770 RedAO= T EigKep=  1.08D-03  NBF=   770
 NBsUse=   770 1.00D-06 EigRej= -1.00D+00 NBFU=   770
 ExpMin= 1.61D-01 ExpMax= 3.05D+03 ExpMxC= 4.57D+02 IAcc=3 IRadAn=         5 AccDes= 0.00D+00
 Harris functional with IExCor=  402 and IRadAn=       5 diagonalized for initial guess.
 HarFok:  IExCor=  402 AccDes= 0.00D+00 IRadAn=         5 IDoV= 1 UseB2=F ITyADJ=14
 ICtDFT=  3500011 ScaDFX=  1.000000  1.000000  1.000000  1.000000
 FoFCou: FMM=F IPFlag=           0 FMFlag=      100000 FMFlg1=        2001
         NFxFlg=           0 DoJE=T BraDBF=F KetDBF=T FulRan=T
         wScrn=  0.000000 ICntrl=       500 IOpCl=  0 I1Cent=   200000004 NGrid=           0
         NMat0=    1 NMatS0=      1 NMatT0=    0 NMatD0=    1 NMtDS0=    0 NMtDT0=    0
 Petite list used in FoFCou.
 Requested convergence on RMS density matrix=1.00D-08 within 128 cycles.
 Requested convergence on MAX density matrix=1.00D-06.
 Requested convergence on             energy=1.00D-06.
 No special actions if energy rises.
 Integral accuracy reduced to 1.0D-05 until final iterations.
 Initial convergence to 1.0D-05 achieved.  Increase integral accuracy.
 SCF Done:  E(RB3LYP) =  -1471.93479131     A.U. after   13 cycles
            NFock= 13  Conv=0.68D-08     -V/T= 2.0101

 **********************************************************************

            Population analysis using the SCF Density.

 **********************************************************************

 Orbital symmetries:
       Occupied  (A) (A) (A) (A) (A) (A) (A) (A) (A) (A) (A) (A)
                 (A) (A) (A) (A) (A) (A) (A) (A) (A) (A) (A) (A)
                 (A) (A) (A) (A) (A) (A) (A) (A) (A) (A) (A) (A)
                 (A) (A) (A) (A) (A) (A) (A) (A) (A) (A) (A) (A)
                 (A) (A) (A) (A) (A) (A) (A) (A) (A) (A) (A) (A)
                 (A) (A) (A) (A) (A) (A) (A) (A) (A) (A) (A) (A)
                 (A) (A) (A) (A) (A) (A) (A) (A) (A) (A) (A) (A)
                 (A) (A) (A) (A) (A) (A) (A) (A) (A) (A) (A) (A)
                 (A) (A) (A) (A) (A) (A) (A) (A) (A) (A) (A) (A)
                 (A) (A) (A) (A) (A) (A) (A) (A) (A) (A) (A) (A)
                 (A) (A) (A) (A) (A) (A) (A) (A) (A) (A) (A) (A)
                 (A) (A)
       Virtual   (A) (A) (A) (A) (A) (A) (A) (A) (A) (A) (A) (A)
                 (A) (A) (A) (A) (A) (A) (A) (A) (A) (A) (A) (A)
                 (A) (A) (A) (A) (A) (A) (A) (A) (A) (A) (A) (A)
                 (A) (A) (A) (A) (A) (A) (A) (A) (A) (A) (A) (A)
                 (A) (A) (A) (A) (A) (A) (A) (A) (A) (A) (A) (A)
                 (A) (A) (A) (A) (A) (A) (A) (A) (A) (A) (A) (A)
                 (A) (A) (A) (A) (A) (A) (A) (A) (A) (A) (A) (A)
                 (A) (A) (A) (A) (A) (A) (A) (A) (A) (A) (A) (A)
                 (A) (A) (A) (A) (A) (A) (A) (A) (A) (A) (A) (A)
                 (A) (A) (A) (A) (A) (A) (A) (A) (A) (A) (A) (A)
                 (A) (A) (A) (A) (A) (A) (A) (A) (A) (A) (A) (A)
                 (A) (A) (A) (A) (A) (A) (A) (A) (A) (A) (A) (A)
                 (A) (A) (A) (A) (A) (A) (A) (A) (A) (A) (A) (A)
                 (A) (A) (A) (A) (A) (A) (A) (A) (A) (A) (A) (A)
                 (A) (A) (A) (A) (A) (A) (A) (A) (A) (A) (A) (A)
                 (A) (A) (A) (A) (A) (A) (A) (A) (A) (A) (A) (A)
                 (A) (A) (A) (A) (A) (A) (A) (A) (A) (A) (A) (A)
                 (A) (A) (A) (A) (A) (A) (A) (A) (A) (A) (A) (A)
                 (A) (A) (A) (A) (A) (A) (A) (A) (A) (A) (A) (A)
                 (A) (A) (A) (A) (A) (A) (A) (A) (A) (A) (A) (A)
                 (A) (A) (A) (A) (A) (A) (A) (A) (A) (A) (A) (A)
                 (A) (A) (A) (A) (A) (A) (A) (A) (A) (A) (A) (A)
                 (A) (A) (A) (A) (A) (A) (A) (A) (A) (A) (A) (A)
                 (A) (A) (A) (A) (A) (A) (A) (A) (A) (A) (A) (A)
                 (A) (A) (A) (A) (A) (A) (A) (A) (A) (A) (A) (A)
                 (A) (A) (A) (A) (A) (A) (A) (A) (A) (A) (A) (A)
                 (A) (A) (A) (A) (A) (A) (A) (A) (A) (A) (A) (A)
                 (A) (A) (A) (A) (A) (A) (A) (A) (A) (A) (A) (A)
                 (A) (A) (A) (A) (A) (A) (A) (A) (A) (A) (A) (A)
                 (A) (A) (A) (A) (A) (A) (A) (A) (A) (A) (A) (A)
                 (A) (A) (A) (A) (A) (A) (A) (A) (A) (A) (A) (A)
                 (A) (A) (A) (A) (A) (A) (A) (A) (A) (A) (A) (A)
                 (A) (A) (A) (A) (A) (A) (A) (A) (A) (A) (A) (A)
                 (A) (A) (A) (A) (A) (A) (A) (A) (A) (A) (A) (A)
                 (A) (A) (A) (A) (A) (A) (A) (A) (A) (A) (A) (A)
                 (A) (A) (A) (A) (A) (A) (A) (A) (A) (A) (A) (A)
                 (A) (A) (A) (A) (A) (A) (A) (A) (A) (A) (A) (A)
                 (A) (A) (A) (A) (A) (A) (A) (A) (A) (A) (A) (A)
                 (A) (A) (A) (A) (A) (A) (A) (A) (A) (A) (A) (A)
                 (A) (A) (A) (A) (A) (A) (A) (A) (A) (A) (A) (A)
                 (A) (A) (A) (A) (A) (A) (A) (A) (A) (A) (A) (A)
                 (A) (A) (A) (A) (A) (A) (A) (A) (A) (A) (A) (A)
                 (A) (A) (A) (A) (A) (A) (A) (A) (A) (A) (A) (A)
                 (A) (A) (A) (A) (A) (A) (A) (A) (A) (A) (A) (A)
                 (A) (A) (A) (A) (A) (A) (A) (A) (A) (A) (A) (A)
                 (A) (A) (A) (A) (A) (A) (A) (A) (A) (A) (A) (A)
                 (A) (A) (A) (A) (A) (A) (A) (A) (A) (A) (A) (A)
                 (A) (A) (A) (A) (A) (A) (A) (A) (A) (A) (A) (A)
                 (A) (A) (A) (A) (A) (A) (A) (A) (A) (A) (A) (A)
                 (A) (A) (A) (A) (A) (A) (A) (A) (A) (A) (A) (A)
                 (A) (A) (A) (A) (A) (A) (A) (A) (A) (A) (A) (A)
                 (A) (A) (A) (A) (A) (A) (A) (A) (A) (A) (A) (A)
                 (A) (A) (A) (A) (A) (A) (A) (A) (A) (A) (A) (A)
 The electronic state is 1-A.
 Alpha  occ. eigenvalues --  -10.19252 -10.19145 -10.19128 -10.19125 -10.19114
 Alpha  occ. eigenvalues --  -10.19101 -10.19092 -10.19089 -10.19081 -10.19079
 Alpha  occ. eigenvalues --  -10.19074 -10.19072 -10.19070 -10.19067 -10.19064
 Alpha  occ. eigenvalues --  -10.19060 -10.19055 -10.19050 -10.19043 -10.19040
 Alpha  occ. eigenvalues --  -10.19027 -10.19014 -10.19008 -10.19003 -10.18998
 Alpha  occ. eigenvalues --  -10.18993 -10.18989 -10.18986 -10.18983 -10.18980
 Alpha  occ. eigenvalues --  -10.18976 -10.18972 -10.18968 -10.18963 -10.18958
 Alpha  occ. eigenvalues --  -10.18921 -10.18773 -10.17905  -0.82954  -0.82829
 Alpha  occ. eigenvalues --   -0.82603  -0.82286  -0.81882  -0.81390  -0.80812
 Alpha  occ. eigenvalues --   -0.80150  -0.79404  -0.78577  -0.77672  -0.76690
 Alpha  occ. eigenvalues --   -0.75639  -0.74523  -0.73356  -0.72159  -0.70971
 Alpha  occ. eigenvalues --   -0.69881  -0.69043  -0.63739  -0.62767  -0.61433
 Alpha  occ. eigenvalues --   -0.59939  -0.58388  -0.57075  -0.56973  -0.56868
 Alpha  occ. eigenvalues --   -0.56772  -0.56497  -0.56175  -0.55775  -0.55535
 Alpha  occ. eigenvalues --   -0.55299  -0.54900  -0.54477  -0.54441  -0.54057
 Alpha  occ. eigenvalues --   -0.54001  -0.48575  -0.48549  -0.48072  -0.47926
 Alpha  occ. eigenvalues --   -0.47337  -0.46880  -0.46404  -0.45854  -0.45132
 Alpha  occ. eigenvalues --   -0.44972  -0.44304  -0.43602  -0.42241  -0.42158
 Alpha  occ. eigenvalues --   -0.41468  -0.40946  -0.40468  -0.40040  -0.39386
 Alpha  occ. eigenvalues --   -0.39262  -0.38589  -0.38499  -0.38005  -0.37910
 Alpha  occ. eigenvalues --   -0.37578  -0.37538  -0.37410  -0.37339  -0.37139
 Alpha  occ. eigenvalues --   -0.36812  -0.36526  -0.36253  -0.35946  -0.35537
 Alpha  occ. eigenvalues --   -0.35314  -0.35148  -0.34984  -0.34854  -0.34443
 Alpha  occ. eigenvalues --   -0.34325  -0.33915  -0.33671  -0.33273  -0.33132
 Alpha  occ. eigenvalues --   -0.32764  -0.32518  -0.31651  -0.30673  -0.29587
 Alpha  occ. eigenvalues --   -0.28394  -0.27099  -0.25707  -0.24227  -0.22675
 Alpha  occ. eigenvalues --   -0.21078  -0.19493  -0.18031  -0.16904
 Alpha virt. eigenvalues --   -0.07621  -0.06474  -0.04894  -0.03132  -0.01317
 Alpha virt. eigenvalues --    0.00473   0.02188   0.03787   0.05235   0.06505
 Alpha virt. eigenvalues --    0.07574   0.08177   0.08377   0.08431   0.08717
 Alpha virt. eigenvalues --    0.09074   0.09179   0.09516   0.09753   0.09785
 Alpha virt. eigenvalues --    0.09914   0.09948   0.09977   0.09982   0.10428
 Alpha virt. eigenvalues --    0.11132   0.11383   0.12113   0.12630   0.13064
 Alpha virt. eigenvalues --    0.13745   0.13776   0.13907   0.14023   0.14194
 Alpha virt. eigenvalues --    0.14256   0.14318   0.14603   0.14669   0.14951
 Alpha virt. eigenvalues --    0.15099   0.15179   0.15413   0.15439   0.15659
 Alpha virt. eigenvalues --    0.15787   0.15993   0.16420   0.16752   0.17457
 Alpha virt. eigenvalues --    0.17531   0.18539   0.18967   0.19675   0.19914
 Alpha virt. eigenvalues --    0.20568   0.20883   0.21238   0.21279   0.24802
 Alpha virt. eigenvalues --    0.25606   0.26847   0.28392   0.30037   0.30462
 Alpha virt. eigenvalues --    0.30497   0.31182   0.31323   0.32096   0.32175
 Alpha virt. eigenvalues --    0.33135   0.33837   0.33920   0.34499   0.35246
 Alpha virt. eigenvalues --    0.35689   0.35886   0.36235   0.36743   0.36812
 Alpha virt. eigenvalues --    0.37036   0.37178   0.37439   0.38141   0.39412
 Alpha virt. eigenvalues --    0.41094   0.41280   0.41345   0.41627   0.41897
 Alpha virt. eigenvalues --    0.42227   0.42421   0.42691   0.42781   0.44922
 Alpha virt. eigenvalues --    0.45713   0.47271   0.48197   0.50575   0.51121
 Alpha virt. eigenvalues --    0.51636   0.51747   0.51952   0.52245   0.52630
 Alpha virt. eigenvalues --    0.53109   0.53356   0.53424   0.53682   0.54347
 Alpha virt. eigenvalues --    0.55103   0.55357   0.55865   0.55946   0.56591
 Alpha virt. eigenvalues --    0.56852   0.56981   0.57069   0.57729   0.57859
 Alpha virt. eigenvalues --    0.58005   0.58407   0.58702   0.58766   0.58786
 Alpha virt. eigenvalues --    0.58887   0.58990   0.59047   0.59205   0.59251
 Alpha virt. eigenvalues --    0.59391   0.59597   0.59999   0.60046   0.60225
 Alpha virt. eigenvalues --    0.60530   0.60655   0.60851   0.61430   0.61508
 Alpha virt. eigenvalues --    0.61763   0.62401   0.62421   0.62917   0.62917
 Alpha virt. eigenvalues --    0.63543   0.64030   0.64458   0.64522   0.64667
 Alpha virt. eigenvalues --    0.65125   0.65643   0.65990   0.66251   0.66460
 Alpha virt. eigenvalues --    0.66576   0.66640   0.67559   0.68078   0.68456
 Alpha virt. eigenvalues --    0.68854   0.69164   0.69717   0.69842   0.70585
 Alpha virt. eigenvalues --    0.70805   0.72490   0.72692   0.74299   0.74391
 Alpha virt. eigenvalues --    0.75748   0.75768   0.76687   0.76689   0.78592
 Alpha virt. eigenvalues --    0.78646   0.78784   0.79045   0.79452   0.80005
 Alpha virt. eigenvalues --    0.80624   0.81173   0.81885   0.82780   0.83536
 Alpha virt. eigenvalues --    0.84180   0.84481   0.84554   0.84684   0.84870
 Alpha virt. eigenvalues --    0.85092   0.85189   0.85376   0.85674   0.85978
 Alpha virt. eigenvalues --    0.86246   0.86285   0.86515   0.86734   0.86879
 Alpha virt. eigenvalues --    0.87077   0.87280   0.87352   0.87494   0.87694
 Alpha virt. eigenvalues --    0.87857   0.87972   0.88295   0.89033   0.89555
 Alpha virt. eigenvalues --    0.89877   0.90042   0.90635   0.91082   0.91149
 Alpha virt. eigenvalues --    0.91426   0.91738   0.91949   0.92585   0.92863
 Alpha virt. eigenvalues --    0.93635   0.94438   0.95071   0.96376   0.97011
 Alpha virt. eigenvalues --    0.98195   0.99697   0.99803   1.02445   1.02458
 Alpha virt. eigenvalues --    1.02963   1.03016   1.03226   1.03780   1.03893
 Alpha virt. eigenvalues --    1.04794   1.04897   1.05834   1.05979   1.06041
 Alpha virt. eigenvalues --    1.06461   1.06860   1.07196   1.07998   1.09014
 Alpha virt. eigenvalues --    1.09231   1.09947   1.10285   1.10630   1.11430
 Alpha virt. eigenvalues --    1.12512   1.13295   1.14390   1.15939   1.16293
 Alpha virt. eigenvalues --    1.16853   1.18467   1.18663   1.21044   1.21513
 Alpha virt. eigenvalues --    1.23664   1.24419   1.26412   1.26851   1.28704
 Alpha virt. eigenvalues --    1.29408   1.29414   1.29710   1.29736   1.29873
 Alpha virt. eigenvalues --    1.30172   1.30190   1.30255   1.30617   1.30768
 Alpha virt. eigenvalues --    1.30882   1.31355   1.31411   1.31451   1.31525
 Alpha virt. eigenvalues --    1.31913   1.32424   1.32510   1.32553   1.33183
 Alpha virt. eigenvalues --    1.33192   1.33311   1.33722   1.33736   1.33756
 Alpha virt. eigenvalues --    1.34193   1.34343   1.34543   1.34789   1.34946
 Alpha virt. eigenvalues --    1.35752   1.36264   1.36988   1.37821   1.38725
 Alpha virt. eigenvalues --    1.39122   1.39679   1.40672   1.41697   1.42748
 Alpha virt. eigenvalues --    1.43819   1.43868   1.44899   1.45975   1.47029
 Alpha virt. eigenvalues --    1.47943   1.48042   1.48991   1.49853   1.50125
 Alpha virt. eigenvalues --    1.50409   1.50604   1.51220   1.51489   1.51680
 Alpha virt. eigenvalues --    1.51789   1.51972   1.52132   1.53312   1.53414
 Alpha virt. eigenvalues --    1.54640   1.54698   1.76370   1.76470   1.76525
 Alpha virt. eigenvalues --    1.76566   1.76619   1.76631   1.76677   1.76696
 Alpha virt. eigenvalues --    1.76856   1.76940   1.77233   1.77287   1.77661
 Alpha virt. eigenvalues --    1.77803   1.78224   1.78327   1.78732   1.78760
 Alpha virt. eigenvalues --    1.81122   1.82154   1.82731   1.83690   1.84991
 Alpha virt. eigenvalues --    1.86269   1.86594   1.88452   1.90509   1.91205
 Alpha virt. eigenvalues --    1.91869   1.91990   1.91998   1.92457   1.92528
 Alpha virt. eigenvalues --    1.92706   1.92939   1.93283   1.93393   1.94106
 Alpha virt. eigenvalues --    1.94270   1.94536   1.94981   1.95239   1.95287
 Alpha virt. eigenvalues --    1.95744   1.96243   1.96666   1.96909   1.97274
 Alpha virt. eigenvalues --    1.97684   1.98320   1.99530   2.01704   2.02908
 Alpha virt. eigenvalues --    2.03341   2.03760   2.04291   2.05676   2.05936
 Alpha virt. eigenvalues --    2.07432   2.07693   2.07757   2.08155   2.09003
 Alpha virt. eigenvalues --    2.09222   2.09288   2.10337   2.10723   2.10992
 Alpha virt. eigenvalues --    2.11320   2.11438   2.12684   2.13524   2.14642
 Alpha virt. eigenvalues --    2.16076   2.16454   2.16781   2.17582   2.17819
 Alpha virt. eigenvalues --    2.18132   2.18719   2.18725   2.19338   2.19720
 Alpha virt. eigenvalues --    2.20130   2.20465   2.20837   2.21592   2.22012
 Alpha virt. eigenvalues --    2.22649   2.23224   2.23433   2.23743   2.24133
 Alpha virt. eigenvalues --    2.24206   2.24466   2.25542   2.25739   2.27044
 Alpha virt. eigenvalues --    2.28384   2.29255   2.29759   2.31164   2.32587
 Alpha virt. eigenvalues --    2.33678   2.34001   2.35351   2.36546   2.37465
 Alpha virt. eigenvalues --    2.38025   2.38348   2.39306   2.41611   2.42991
 Alpha virt. eigenvalues --    2.44348   2.44382   2.44770   2.44898   2.45298
 Alpha virt. eigenvalues --    2.45906   2.46712   2.46947   2.47589   2.48134
 Alpha virt. eigenvalues --    2.48346   2.48521   2.48959   2.49081   2.49517
 Alpha virt. eigenvalues --    2.50047   2.50201   2.50676   2.51044   2.51150
 Alpha virt. eigenvalues --    2.51870   2.51940   2.52002   2.52110   2.52603
 Alpha virt. eigenvalues --    2.53468   2.53482   2.53517   2.53785   2.53893
 Alpha virt. eigenvalues --    2.54623   2.55117   2.55239   2.55974   2.56354
 Alpha virt. eigenvalues --    2.56885   2.57055   2.57301   2.57991   2.58751
 Alpha virt. eigenvalues --    2.58978   2.60144   2.60294   2.60638   2.60924
 Alpha virt. eigenvalues --    2.61334   2.62495   2.62828   2.63200   2.63787
 Alpha virt. eigenvalues --    2.64239   2.64647   2.64952   2.65734   2.66221
 Alpha virt. eigenvalues --    2.66464   2.67328   2.67694   2.68554   2.68583
 Alpha virt. eigenvalues --    2.68900   2.69536   2.69564   2.69839   2.70248
 Alpha virt. eigenvalues --    2.70358   2.70482   2.70692   2.70821   2.71191
 Alpha virt. eigenvalues --    2.71532   2.72106   2.72502   2.73666   2.74428
 Alpha virt. eigenvalues --    2.75736   2.76209   2.77487   2.77884   2.80367
 Alpha virt. eigenvalues --    2.80665   2.81398   2.82788   2.83738   2.84952
 Alpha virt. eigenvalues --    2.85820   2.86325   2.86890   2.87540   2.88630
 Alpha virt. eigenvalues --    2.90146   2.91065   2.91132   2.91369   2.91514
 Alpha virt. eigenvalues --    2.91549   2.91595   2.92187   2.92371   2.92859
 Alpha virt. eigenvalues --    2.92896   2.93341   2.93355   2.94093   2.94351
 Alpha virt. eigenvalues --    2.95276   2.95753   2.96417   2.97023   2.97492
 Alpha virt. eigenvalues --    2.98129   2.98457   2.99039   2.99253   2.99725
 Alpha virt. eigenvalues --    2.99814   3.00158   3.00211   3.17861   3.28047
 Alpha virt. eigenvalues --    3.35172   3.35260   3.35429   3.35686   3.36046
 Alpha virt. eigenvalues --    3.36531   3.37158   3.37929   3.38822   3.39796
 Alpha virt. eigenvalues --    3.40832   3.41952   3.43207   3.44640   3.46277
 Alpha virt. eigenvalues --    3.48116   3.50132   3.51095   3.52163   3.52264
 Alpha virt. eigenvalues --    3.53840   3.54300   3.55941   3.58275   3.58555
 Alpha virt. eigenvalues --    3.60308   3.60705   3.62390   3.63008   3.64368
 Alpha virt. eigenvalues --    3.65060   3.66072   3.66729   3.67392   3.67912
 Alpha virt. eigenvalues --    3.68246   3.68526   3.71078   4.13695   4.13753
 Alpha virt. eigenvalues --    4.13814   4.13888   4.13957   4.14022   4.14102
 Alpha virt. eigenvalues --    4.14221   4.14403   4.14668   4.15035   4.15521
 Alpha virt. eigenvalues --    4.16143   4.16918   4.17862   4.18985   4.20285
 Alpha virt. eigenvalues --    4.21712   4.25246   4.25764   4.28306   4.30737
 Alpha virt. eigenvalues --    4.33428   4.36349   4.39473   4.42772   4.46210
 Alpha virt. eigenvalues --    4.49743   4.53318   4.56876   4.60348   4.63661
 Alpha virt. eigenvalues --    4.66737   4.69500   4.71876   4.73801   4.75220
 Alpha virt. eigenvalues --    4.76099
          Condensed to atoms (all electrons):
 Mulliken charges:
               1
     1  C   -0.251962
     2  C   -0.033559
     3  C   -0.077893
     4  C   -0.076661
     5  C   -0.080860
     6  C   -0.078876
     7  C   -0.079991
     8  C   -0.079528
     9  C   -0.079911
    10  C   -0.079663
    11  C   -0.079875
    12  C   -0.079744
    13  C   -0.079838
    14  C   -0.079805
    15  C   -0.079799
    16  C   -0.079861
    17  C   -0.079754
    18  C   -0.079910
    19  C   -0.079706
    20  C   -0.079951
    21  C   -0.079654
    22  C   -0.079983
    23  C   -0.079601
    24  C   -0.080005
    25  C   -0.079549
    26  C   -0.080017
    27  C   -0.079496
    28  C   -0.080020
    29  C   -0.079428
    30  C   -0.080024
    31  C   -0.079305
    32  C   -0.080076
    33  C   -0.078719
    34  C   -0.080827
    35  C   -0.076202
    36  C   -0.078864
    37  C   -0.028572
    38  C   -0.254647
    39  H    0.095329
    40  H    0.095493
    41  H    0.083684
    42  H    0.081568
    43  H    0.080928
    44  H    0.080517
    45  H    0.080175
    46  H    0.080115
    47  H    0.079995
    48  H    0.079971
    49  H    0.079909
    50  H    0.079908
    51  H    0.079855
    52  H    0.079879
    53  H    0.079817
    54  H    0.079872
    55  H    0.079790
    56  H    0.079880
    57  H    0.079774
    58  H    0.079898
    59  H    0.079768
    60  H    0.079926
    61  H    0.079776
    62  H    0.079960
    63  H    0.079797
    64  H    0.080001
    65  H    0.079837
    66  H    0.080048
    67  H    0.079900
    68  H    0.080107
    69  H    0.080000
    70  H    0.080199
    71  H    0.080182
    72  H    0.080401
    73  H    0.080644
    74  H    0.081241
    75  H    0.081739
    76  H    0.084986
    77  H    0.097637
    78  H    0.089625
 Sum of Mulliken charges =  -0.00000
 Mulliken charges with hydrogens summed into heavy atoms:
               1
     1  C   -0.061141
     2  C    0.050125
     3  C    0.003675
     4  C    0.004268
     5  C   -0.000343
     6  C    0.001299
     7  C    0.000123
     8  C    0.000467
     9  C    0.000061
    10  C    0.000246
    11  C    0.000033
    12  C    0.000112
    13  C    0.000041
    14  C    0.000012
    15  C    0.000073
    16  C   -0.000070
    17  C    0.000125
    18  C   -0.000136
    19  C    0.000193
    20  C   -0.000182
    21  C    0.000272
    22  C   -0.000207
    23  C    0.000359
    24  C   -0.000207
    25  C    0.000452
    26  C   -0.000179
    27  C    0.000552
    28  C   -0.000120
    29  C    0.000679
    30  C   -0.000023
    31  C    0.000894
    32  C    0.000106
    33  C    0.001682
    34  C   -0.000183
    35  C    0.005039
    36  C    0.002875
    37  C    0.056415
    38  C   -0.067386
 Electronic spatial extent (au):  <R**2>=         176523.8154
 Charge=             -0.0000 electrons
 Dipole moment (field-independent basis, Debye):
    X=             -0.0560    Y=              0.0056    Z=              0.0011  Tot=              0.0563
 Quadrupole moment (field-independent basis, Debye-Ang):
   XX=           -226.0179   YY=           -198.5047   ZZ=           -246.9148
   XY=             -2.9310   XZ=             -0.0118   YZ=              0.1208
 Traceless Quadrupole moment (field-independent basis, Debye-Ang):
   XX=             -2.2054   YY=             25.3078   ZZ=            -23.1023
   XY=             -2.9310   XZ=             -0.0118   YZ=              0.1208
 Octapole moment (field-independent basis, Debye-Ang**2):
  XXX=             42.6680  YYY=              0.2458  ZZZ=             -0.0142  XYY=              1.8862
  XXY=              7.9261  XXZ=              0.6514  XZZ=              2.1153  YZZ=              0.0847
  YYZ=              0.0021  XYZ=             -0.5920
 Hexadecapole moment (field-independent basis, Debye-Ang**3):
 XXXX=        -243613.9492 YYYY=           -664.4985 ZZZZ=           -256.1953 XXXY=          -1638.5031
 XXXZ=            -10.4646 YYYX=             -2.0931 YYYZ=              0.2489 ZZZX=              0.2131
 ZZZY=              0.1059 XXYY=         -36691.0830 XXZZ=         -45523.2018 YYZZ=           -172.9914
 XXYZ=             20.2564 YYXZ=              0.1673 ZZXY=             -3.0084
 N-N= 2.543056335654D+03 E-N=-8.490970949155D+03  KE= 1.457262092301D+03
 Calling FoFJK, ICntrl=      2127 FMM=T ISym2X=0 I1Cent= 0 IOpClX= 0 NMat=1 NMatS=1 NMatT=0.
 ***** Axes restored to original set *****
 -------------------------------------------------------------------
 Center     Atomic                   Forces (Hartrees/Bohr)
 Number     Number              X              Y              Z
 -------------------------------------------------------------------
      1        6          -0.008398838    0.004069084   -0.000185962
      2        6           0.010750051   -0.022494844    0.001239661
      3        6          -0.021254040    0.023793132   -0.001252209
      4        6           0.024711077   -0.025843789    0.001351942
      5        6          -0.026821349    0.025024931   -0.001290547
      6        6           0.027621085   -0.025675377    0.001325872
      7        6          -0.028338803    0.025371425   -0.001301680
      8        6           0.028614415   -0.025600845    0.001316814
      9        6          -0.028884091    0.025481630   -0.001305558
     10        6           0.029002607   -0.025571942    0.001314733
     11        6          -0.029115509    0.025512052   -0.001307876
     12        6           0.029186135   -0.025541917    0.001315149
     13        6          -0.029236615    0.025498902   -0.001310080
     14        6           0.029301318   -0.025495006    0.001316789
     15        6          -0.029324219    0.025450837   -0.001312649
     16        6           0.029401256   -0.025422614    0.001319277
     17        6          -0.029409770    0.025369771   -0.001315838
     18        6           0.029506974   -0.025320949    0.001322436
     19        6          -0.029506126    0.025256724   -0.001319637
     20        6           0.029624865   -0.025189191    0.001326118
     21        6          -0.029616028    0.025114456   -0.001323988
     22        6           0.029752219   -0.025030095    0.001330199
     23        6          -0.029734078    0.024948647   -0.001328819
     24        6           0.029878511   -0.024849127    0.001334463
     25        6          -0.029846409    0.024768277   -0.001333950
     26        6           0.029983694   -0.024654090    0.001338619
     27        6          -0.029925025    0.024586018   -0.001339338
     28        6           0.030029749   -0.024452273    0.001342270
     29        6          -0.029911225    0.024420467   -0.001345201
     30        6           0.029934862   -0.024245855    0.001344532
     31        6          -0.029665341    0.024299478   -0.001352646
     32        6           0.029494494   -0.024012610    0.001344710
     33        6          -0.028782788    0.024283776   -0.001365711
     34        6           0.028068946   -0.023602263    0.001329949
     35        6          -0.025860733    0.024395096   -0.001389636
     36        6           0.022867307   -0.021940358    0.001275346
     37        6          -0.008520790    0.020791308   -0.001223709
     38        6           0.039391241   -0.026023010    0.001360594
     39        1          -0.002741415   -0.003535192    0.000220890
     40        1          -0.002397207    0.000475061   -0.000012766
     41        1           0.005365560    0.000214603   -0.000044382
     42        1          -0.003411795    0.000565061   -0.000011694
     43        1           0.003194663   -0.000408896    0.000004509
     44        1          -0.003199157    0.000476787   -0.000007538
     45        1           0.003206517   -0.000426166    0.000005200
     46        1          -0.003210247    0.000457600   -0.000006036
     47        1           0.003208574   -0.000441103    0.000005681
     48        1          -0.003213288    0.000447640   -0.000005206
     49        1           0.003212007   -0.000446475    0.000005474
     50        1          -0.003217099    0.000440394   -0.000004730
     51        1           0.003215393   -0.000447780    0.000004966
     52        1          -0.003220777    0.000432389   -0.000004509
     53        1           0.003218214   -0.000445975    0.000004329
     54        1          -0.003223916    0.000422333   -0.000004524
     55        1           0.003220206   -0.000441064    0.000003668
     56        1          -0.003226122    0.000409671   -0.000004749
     57        1           0.003221086   -0.000432810    0.000003082
     58        1          -0.003227084    0.000394375   -0.000005167
     59        1           0.003220703   -0.000421215    0.000002652
     60        1          -0.003226528    0.000376854   -0.000005722
     61        1           0.003219033   -0.000406415    0.000002436
     62        1          -0.003224428    0.000357765   -0.000006313
     63        1           0.003216231   -0.000389072    0.000002475
     64        1          -0.003220917    0.000337888   -0.000006852
     65        1           0.003212655   -0.000370219    0.000002786
     66        1          -0.003216417    0.000318289   -0.000007226
     67        1           0.003208865   -0.000351814    0.000003387
     68        1          -0.003211481    0.000299305   -0.000007332
     69        1           0.003205634   -0.000336149    0.000004281
     70        1          -0.003207047    0.000280388   -0.000006963
     71        1           0.003204239   -0.000327399    0.000005539
     72        1          -0.003205361    0.000256139   -0.000006094
     73        1           0.003194945   -0.000334633    0.000007660
     74        1          -0.003188642    0.000228961   -0.000003919
     75        1           0.003343846   -0.000348962    0.000008775
     76        1          -0.004611756   -0.000018817    0.000003760
     77        1           0.004767356   -0.001147144    0.000055443
     78        1          -0.035224070    0.026815935   -0.001439712
 -------------------------------------------------------------------
 Cartesian Forces:  Max     0.039391241 RMS     0.015322410

 GradGradGradGradGradGradGradGradGradGradGradGradGradGradGradGradGradGrad
 Berny optimization.
 FormGI is forming the generalized inverse of G from B-inverse, IUseBI=4.
 Internal  Forces:  Max     0.044103826 RMS     0.008725459
 Search for a local minimum.
 Step number   1 out of a maximum of  349
 All quantities printed in internal units (Hartrees-Bohrs-Radians)
 Mixed Optimization -- RFO/linear search
 Second derivative matrix not updated -- first step.
 ITU=  0
     Eigenvalues ---    0.01059   0.01059   0.01059   0.01059   0.01059
     Eigenvalues ---    0.01059   0.01059   0.01060   0.01060   0.01060
     Eigenvalues ---    0.01060   0.01060   0.01060   0.01061   0.01061
     Eigenvalues ---    0.01061   0.01063   0.01066   0.01978   0.01978
     Eigenvalues ---    0.01978   0.01978   0.01978   0.01978   0.01978
     Eigenvalues ---    0.01978   0.01978   0.01978   0.01978   0.01978
     Eigenvalues ---    0.01978   0.01978   0.01978   0.01978   0.01978
     Eigenvalues ---    0.01978   0.01978   0.01978   0.01978   0.01978
     Eigenvalues ---    0.01978   0.01978   0.01979   0.01979   0.01979
     Eigenvalues ---    0.01979   0.01979   0.01979   0.01979   0.01979
     Eigenvalues ---    0.01980   0.01982   0.01987   0.01999   0.02887
     Eigenvalues ---    0.02887   0.02887   0.02887   0.02887   0.02888
     Eigenvalues ---    0.02888   0.02888   0.02888   0.02888   0.02888
     Eigenvalues ---    0.02888   0.02888   0.02888   0.02888   0.02888
     Eigenvalues ---    0.02888   0.02914   0.02914   0.02949   0.02949
     Eigenvalues ---    0.16000   0.16000   0.16000   0.16000   0.16000
     Eigenvalues ---    0.16000   0.16000   0.16000   0.16000   0.16000
     Eigenvalues ---    0.16000   0.16000   0.16000   0.16000   0.16000
     Eigenvalues ---    0.16000   0.16000   0.16000   0.16000   0.16000
     Eigenvalues ---    0.16000   0.16000   0.16000   0.16000   0.16000
     Eigenvalues ---    0.16000   0.16000   0.16000   0.16000   0.16000
     Eigenvalues ---    0.16000   0.16000   0.16000   0.16000   0.16000
     Eigenvalues ---    0.16000   0.16000   0.16000   0.16000   0.16000
     Eigenvalues ---    0.22000   0.22000   0.22000   0.22000   0.22000
     Eigenvalues ---    0.22000   0.22000   0.22000   0.22000   0.22000
     Eigenvalues ---    0.22000   0.22000   0.22000   0.22000   0.22000
     Eigenvalues ---    0.22000   0.22000   0.22000   0.22000   0.22000
     Eigenvalues ---    0.22000   0.22000   0.22000   0.22000   0.22000
     Eigenvalues ---    0.22000   0.22000   0.22000   0.22000   0.22000
     Eigenvalues ---    0.22000   0.22000   0.22000   0.22000   0.22000
     Eigenvalues ---    0.22000   0.27330   0.34818   0.34818   0.34818
     Eigenvalues ---    0.34819   0.34819   0.34821   0.34821   0.34822
     Eigenvalues ---    0.34823   0.34823   0.34823   0.34826   0.34830
     Eigenvalues ---    0.34832   0.34834   0.34834   0.34856   0.34881
     Eigenvalues ---    0.35075   0.35075   0.35075   0.35075   0.35076
     Eigenvalues ---    0.35076   0.35077   0.35077   0.35078   0.35078
     Eigenvalues ---    0.35078   0.35079   0.35079   0.35080   0.35080
     Eigenvalues ---    0.35080   0.35081   0.35081   0.35082   0.35082
     Eigenvalues ---    0.35083   0.35084   0.35084   0.35085   0.35086
     Eigenvalues ---    0.35086   0.35087   0.35087   0.35088   0.35088
     Eigenvalues ---    0.35088   0.35089   0.35089   0.35089   0.35131
     Eigenvalues ---    0.35173   0.35192   0.35272   0.35371   0.57281
     Eigenvalues ---    0.57283   0.57286   0.57287   0.57290   0.57295
     Eigenvalues ---    0.57297   0.57299   0.57299   0.57301   0.57302
     Eigenvalues ---    0.57303   0.57305   0.57305   0.57306   0.57306
     Eigenvalues ---    0.57306   0.57736   0.58340
 RFO step:  Lambda=-6.72696569D-02 EMin= 1.05904352D-02
 Linear search not attempted -- first point.
 Maximum step size (   0.300) exceeded in Quadratic search.
    -- Step size scaled by   0.681
 Iteration  1 RMS(Cart)=  0.09634001 RMS(Int)=  0.00029298
 Iteration  2 RMS(Cart)=  0.00146766 RMS(Int)=  0.00000014
 Iteration  3 RMS(Cart)=  0.00000024 RMS(Int)=  0.00000010
 Variable       Old X    -DE/DX   Delta X   Delta X   Delta X     New X
                                 (Linear)    (Quad)   (Total)
    R1        2.52278   0.01190   0.00000   0.01245   0.01245   2.53523
    R2        2.05076   0.00017   0.00000   0.00028   0.00028   2.05104
    R3        2.05236  -0.00019   0.00000  -0.00032  -0.00032   2.05205
    R4        2.79168  -0.01415   0.00000  -0.02315  -0.02315   2.76854
    R5        2.05365   0.00063   0.00000   0.00102   0.00102   2.05467
    R6        2.53138   0.01877   0.00000   0.01995   0.01995   2.55133
    R7        2.05547  -0.00026   0.00000  -0.00042  -0.00042   2.05504
    R8        2.79263  -0.01789   0.00000  -0.02931  -0.02931   2.76332
    R9        2.05546  -0.00013   0.00000  -0.00020  -0.00020   2.05525
   R10        2.53146   0.02101   0.00000   0.02234   0.02234   2.55380
   R11        2.05542  -0.00019   0.00000  -0.00031  -0.00031   2.05511
   R12        2.79263  -0.01890   0.00000  -0.03096  -0.03096   2.76167
   R13        2.05544  -0.00014   0.00000  -0.00023  -0.00023   2.05521
   R14        2.53144   0.02178   0.00000   0.02315   0.02315   2.55459
   R15        2.05541  -0.00017   0.00000  -0.00028  -0.00028   2.05513
   R16        2.79264  -0.01924   0.00000  -0.03152  -0.03152   2.76112
   R17        2.05544  -0.00016   0.00000  -0.00025  -0.00025   2.05519
   R18        2.53142   0.02207   0.00000   0.02346   0.02346   2.55489
   R19        2.05540  -0.00016   0.00000  -0.00026  -0.00026   2.05514
   R20        2.79267  -0.01938   0.00000  -0.03175  -0.03175   2.76091
   R21        2.05545  -0.00016   0.00000  -0.00026  -0.00026   2.05518
   R22        2.53140   0.02220   0.00000   0.02360   0.02360   2.55500
   R23        2.05539  -0.00016   0.00000  -0.00026  -0.00026   2.05514
   R24        2.79269  -0.01944   0.00000  -0.03186  -0.03186   2.76084
   R25        2.05546  -0.00017   0.00000  -0.00027  -0.00027   2.05519
   R26        2.53139   0.02226   0.00000   0.02366   0.02366   2.55505
   R27        2.05538  -0.00015   0.00000  -0.00025  -0.00025   2.05513
   R28        2.79271  -0.01947   0.00000  -0.03190  -0.03190   2.76081
   R29        2.05547  -0.00017   0.00000  -0.00028  -0.00028   2.05520
   R30        2.53138   0.02229   0.00000   0.02369   0.02369   2.55507
   R31        2.05536  -0.00015   0.00000  -0.00024  -0.00024   2.05512
   R32        2.79272  -0.01949   0.00000  -0.03193  -0.03193   2.76079
   R33        2.05549  -0.00017   0.00000  -0.00028  -0.00028   2.05521
   R34        2.53138   0.02230   0.00000   0.02370   0.02370   2.55508
   R35        2.05534  -0.00015   0.00000  -0.00024  -0.00024   2.05511
   R36        2.79272  -0.01949   0.00000  -0.03193  -0.03193   2.76078
   R37        2.05550  -0.00017   0.00000  -0.00028  -0.00028   2.05522
   R38        2.53139   0.02229   0.00000   0.02370   0.02370   2.55509
   R39        2.05533  -0.00014   0.00000  -0.00023  -0.00023   2.05510
   R40        2.79270  -0.01949   0.00000  -0.03193  -0.03193   2.76077
   R41        2.05552  -0.00018   0.00000  -0.00029  -0.00029   2.05523
   R42        2.53141   0.02228   0.00000   0.02368   0.02368   2.55510
   R43        2.05532  -0.00014   0.00000  -0.00023  -0.00023   2.05509
   R44        2.79267  -0.01948   0.00000  -0.03191  -0.03191   2.76076
   R45        2.05553  -0.00018   0.00000  -0.00029  -0.00029   2.05524
   R46        2.53144   0.02225   0.00000   0.02366   0.02366   2.55510
   R47        2.05531  -0.00014   0.00000  -0.00023  -0.00023   2.05508
   R48        2.79263  -0.01946   0.00000  -0.03188  -0.03188   2.76075
   R49        2.05553  -0.00018   0.00000  -0.00029  -0.00029   2.05524
[...]
 000002,-0.00000055,0.00000003,-0.00000005,0.00000047,-0.00000004,0.000
 00005,-0.00000070,0.00000002,-0.00000006,0.00000060,-0.00000007,0.,-0.
 00000078,0.00000003,-0.00000003,0.00000057,-0.00000007,0.,-0.00000082,
 0.,-0.00000006,0.00000064,-0.00000010,-0.00000003,-0.00000093,-0.00000
 002,-0.00000005,0.00000074,-0.00000015,-0.00000004,-0.00000117,-0.0000
 0005,-0.00000006,0.00000088,-0.00000022,-0.00000009,-0.00000127,-0.000
 00014,0.00000002,0.00000106,-0.00000035,-0.00000015,-0.00000154,-0.000
 00021,0.00000004,0.00000125,-0.00000053,-0.00000033,-0.00000186,-0.000
 00051,0.00000018,0.00000158,-0.00000111,-0.00000062,-0.00000231,-0.000
 00026,0.00000053,0.00000221,-0.00000077,-0.00000137,-0.00000323,-0.000
 00418,0.00000121,0.00000293,-0.00001152,-0.00000297,-0.00000338,0.0000
 1558,0.00000097,0.00000437,-0.00002126,-0.00002594,-0.00004443,-0.0001
 9883,0.00008906,-0.00015742,-0.00164008,0.00020089,0.00102391,0.002957
 04,0.00190376,0.01686580,-0.04273323,0.00003232,0.00108261,0.00514319,
 -0.00000005,0.00000001,0.00000012,0.00000002,0.00000002,0.00000013,0.0
 0000001,0.00000006,0.00000012,0.,0.,0.00000011,0.,0.00000008,0.0000000
 9,0.,0.00000001,0.00000011,0.,0.00000012,0.00000010,0.,-0.00000001,0.0
 0000006,-0.00000001,0.00000008,0.00000001,0.,0.00000003,-0.00000001,-0
 .00000001,0.00000011,0.,0.,0.,0.,0.,0.00000014,0.00000001,0.,0.0000000
 3,0.00000002,0.,0.00000016,0.00000002,0.,0.00000007,0.00000003,-0.0000
 0001,0.00000017,0.00000003,0.,0.00000007,0.00000006,-0.00000001,0.0000
 0020,0.00000007,0.00000001,0.00000008,0.00000010,0.,0.00000027,0.00000
 011,0.,0.00000010,0.00000016,-0.00000001,0.00000028,0.00000018,0.00000
 001,0.00000009,0.00000028,-0.00000003,0.00000034,0.00000030,0.00000002
 ,0.00000014,0.00000046,-0.00000002,0.00000041,0.00000050,0.,0.00000016
 ,0.00000086,-0.00000004,0.00000054,0.00000093,-0.00000003,0.00000016,0
 .00000155,-0.00000002,0.00000064,0.00000118,-0.00000012,0.00000024,0.0
 0000418,0.00000009,0.00000106,0.00000538,-0.00000193,0.00000046,0.0000
 1069,0.00001554,0.00000206,0.00010769,-0.00005890,-0.00002239,0.000221
 29,-0.00011072,0.00023907,0.00365490,-0.00218904,-0.01912135,0.0284575
 9,0.00000083,-0.00000053,0.00000002,-0.00000028,0.00000125,-0.00000007
 ,0.00000025,-0.00000104,0.00000006,-0.00000013,0.00000132,-0.00000008,
 0.00000017,-0.00000101,0.00000006,-0.00000007,0.00000135,-0.00000008,0
 .00000013,-0.00000105,0.00000006,-0.00000016,0.00000149,-0.00000009,0.
 00000024,-0.00000117,0.00000007,-0.00000015,0.00000159,-0.00000009,0.0
 0000026,-0.00000122,0.00000007,-0.00000019,0.00000172,-0.00000010,0.00
 000029,-0.00000130,0.00000008,-0.00000021,0.00000189,-0.00000011,0.000
 00034,-0.00000140,0.00000008,-0.00000026,0.00000209,-0.00000012,0.0000
 0043,-0.00000153,0.00000009,-0.00000036,0.00000234,-0.00000014,0.00000
 058,-0.00000168,0.00000010,-0.00000051,0.00000262,-0.00000016,0.000000
 80,-0.00000186,0.00000011,-0.00000075,0.00000297,-0.00000017,0.0000011
 3,-0.00000207,0.00000012,-0.00000113,0.00000335,-0.00000020,0.00000164
 ,-0.00000230,0.00000013,-0.00000175,0.00000379,-0.00000021,0.00000247,
 -0.00000253,0.00000013,-0.00000277,0.00000417,-0.00000027,0.00000380,-
 0.00000276,0.00000014,-0.00000399,0.00000438,-0.00000011,0.00000620,-0
 .00000253,0.00000007,-0.00000512,0.00000238,-0.00000071,0.00002641,0.0
 0000104,0.,0.00003514,0.00007573,-0.00000289,-0.00013501,0.00020061,-0
 .00001160,0.00178627,-0.00182418,0.00005665,0.00014104,-0.03077994,0.0
 0186126,-0.06494527,-0.03790892,0.00244139,0.00000010,0.,0.,-0.0000000
 3,0.,0.,-0.00000003,-0.00000024,0.00000001,-0.00000001,-0.00000004,0.,
 -0.00000001,-0.00000027,0.00000002,-0.00000001,-0.00000006,0.,0.,-0.00
 000029,0.00000002,-0.00000002,-0.00000007,0.,0.,-0.00000028,0.00000002
 ,-0.00000001,-0.00000010,0.,0.,-0.00000031,0.00000002,-0.00000001,-0.0
 0000011,0.,0.,-0.00000036,0.00000002,-0.00000001,-0.00000013,0.,0.,-0.
 00000041,0.00000003,-0.00000002,-0.00000016,0.,0.00000001,-0.00000046,
 0.00000003,-0.00000002,-0.00000019,0.00000001,0.00000001,-0.00000053,0
 .00000003,-0.00000002,-0.00000022,0.00000001,0.00000001,-0.00000060,0.
 00000004,-0.00000002,-0.00000026,0.00000002,0.00000001,-0.00000068,0.0
 0000004,-0.00000002,-0.00000031,0.00000002,0.,-0.00000077,0.00000005,0
 .,-0.00000035,0.00000002,-0.00000002,-0.00000085,0.00000005,0.00000005
 ,-0.00000037,0.00000002,-0.00000010,-0.00000087,0.00000006,0.00000017,
 -0.00000028,0.00000003,-0.00000039,-0.00000063,0.00000005,0.00000127,0
 .00000031,-0.00000008,-0.00000320,0.00000085,0.,0.00001029,0.00000308,
 -0.00000015,-0.00005045,0.00003296,-0.00000166,0.00012772,0.00023584,-
 0.00001286,-0.00023299,0.00094379,-0.00005329,-0.00463015,-0.00166236,
 0.00018800,0.06146426,-0.00000025,0.00000032,-0.00000005,0.00000029,-0
 .00000063,0.00000002,-0.00000014,0.00000057,-0.00000004,0.00000010,-0.
 00000063,0.00000002,-0.00000016,0.00000058,-0.00000004,0.00000026,-0.0
 0000076,0.00000003,-0.00000044,0.00000059,-0.00000005,0.00000016,-0.00
 000070,0.00000004,-0.00000028,0.00000050,-0.00000002,0.00000032,-0.000
 00082,0.00000005,-0.00000040,0.00000052,-0.00000003,0.00000040,-0.0000
 0089,0.00000005,-0.00000064,0.00000061,-0.00000003,0.00000068,-0.00000
 108,0.00000006,-0.00000097,0.00000063,-0.00000003,0.00000108,-0.000001
 25,0.00000007,-0.00000151,0.00000068,-0.00000004,0.00000170,-0.0000014
 6,0.00000008,-0.00000230,0.00000074,-0.00000003,0.00000266,-0.00000178
 ,0.00000007,-0.00000357,0.00000080,-0.00000003,0.00000422,-0.00000220,
 0.00000010,-0.00000565,0.00000084,-0.00000003,0.00000686,-0.00000284,0
 .00000010,-0.00000925,0.00000081,-0.00000002,0.00001145,-0.00000385,0.
 00000020,-0.00001573,0.00000061,0.,0.00001995,-0.00000562,-0.00000013,
 -0.00002835,-0.00000003,0.00000015,0.00003709,-0.00000904,0.00000173,-
 0.00005766,-0.00000148,-0.00000012,0.00007412,-0.00002199,-0.00000533,
 -0.00013100,-0.00000356,0.00000321,0.00011988,-0.00005622,0.00002177,-
 0.00035211,0.00042821,-0.00002780,0.00222115,0.00097884,-0.00050986,-0
 .00064624,-0.01006280,0.00088389,-0.04134999,-0.33112011,0.01800078,-0
 .00000022,0.00000004,0.,0.,-0.00000007,0.00000002,-0.00000003,0.000000
 07,0.,-0.00000002,-0.00000002,0.00000001,0.,0.00000009,0.,0.,-0.000000
 02,0.00000001,0.00000001,0.00000011,0.,0.00000003,0.00000003,0.,0.0000
 0003,0.00000016,0.,0.00000003,0.00000005,0.,0.00000002,0.00000020,-0.0
 0000001,0.00000003,0.00000010,-0.00000001,0.00000001,0.00000019,-0.000
 00001,0.00000004,0.00000010,0.,0.,0.00000026,-0.00000001,0.00000004,0.
 00000015,0.,0.,0.00000031,-0.00000002,0.00000005,0.00000019,-0.0000000
 1,0.,0.00000036,-0.00000002,0.00000006,0.00000023,0.,0.,0.00000045,-0.
 00000002,0.00000007,0.00000030,0.,0.,0.00000055,-0.00000002,0.00000010
 ,0.00000040,-0.00000001,-0.00000003,0.00000070,-0.00000002,0.00000015,
 0.00000057,0.,-0.00000006,0.00000095,-0.00000002,0.00000026,0.00000084
 ,-0.00000002,-0.00000015,0.00000137,-0.00000002,0.00000056,0.00000138,
 0.00000006,-0.00000036,0.00000222,-0.00000002,0.00000158,0.00000257,-0
 .00000070,-0.00000100,0.00000466,-0.00000002,0.00000503,0.00000418,0.0
 0000068,-0.00001521,0.00000807,-0.00000020,0.00022180,-0.00001151,0.00
 001960,-0.00097755,0.00054489,-0.00000956,-0.00195979,0.00083902,0.000
 61516,0.04781235,0.35044600,0.00000002,-0.00000004,-0.00000033,-0.0000
 0005,0.00000005,-0.00000011,0.00000002,-0.00000003,-0.00000008,0.00000
 001,0.00000003,-0.00000012,-0.00000002,0.,-0.00000011,-0.00000002,0.,-
 0.00000014,0.00000005,0.,-0.00000004,-0.00000001,0.00000006,-0.0000000
 5,0.00000002,-0.00000005,0.00000002,-0.00000006,0.00000008,0.,0.000000
 03,-0.00000003,-0.00000001,0.,0.,-0.00000002,0.00000003,0.00000004,-0.
 00000004,-0.00000005,0.,-0.00000003,0.00000007,-0.00000004,-0.00000004
 ,-0.00000006,0.00000006,-0.00000006,0.00000008,-0.00000005,-0.00000007
 ,-0.00000011,0.00000008,-0.00000009,0.00000014,-0.00000004,-0.00000012
 ,-0.00000015,0.00000002,-0.00000015,0.00000019,-0.00000004,-0.00000018
 ,-0.00000025,0.00000012,-0.00000017,0.00000035,-0.00000003,-0.00000030
 ,-0.00000039,0.00000011,-0.00000060,0.00000053,-0.00000006,-0.00000037
 ,-0.00000068,0.00000025,0.00000050,0.00000091,-0.00000008,-0.00000103,
 -0.00000120,-0.00000004,-0.00000599,0.00000168,0.00000002,-0.00000035,
 -0.00000203,0.00000193,0.00002342,0.00000329,-0.00000039,-0.00000908,-
 0.00000495,-0.00000492,-0.00010403,0.00000789,0.00000244,0.00003759,-0
 .00000554,0.00002203,0.00031912,0.00002139,-0.00003097,-0.00006983,-0.
 00018451,-0.00048677,-0.00732964,0.00006443,0.00105564,0.00463601,0.00
 264660,0.01798121,-0.03426504,0.00000002,0.,0.00000013,0.,0.00000003,0
 .00000014,0.,-0.00000002,0.00000014,0.,0.,0.00000013,0.,0.,0.00000011,
 0.,0.,0.00000012,0.,0.00000002,0.00000011,0.,-0.00000003,0.00000007,0.
 ,-0.00000002,0.00000002,0.,0.,0.,0.,-0.00000001,0.,0.,-0.00000003,0.,0
 .00000001,0.,0.00000003,0.,-0.00000001,0.00000003,0.,0.,0.00000003,0.,
 0.00000001,0.00000004,0.,-0.00000002,0.00000005,0.,0.,0.00000007,0.,-0
 .00000002,0.00000009,0.,0.,0.00000011,0.,0.00000001,0.00000014,-0.0000
 0001,0.,0.00000018,0.,-0.00000002,0.00000023,0.,-0.00000002,0.00000026
 ,0.,-0.00000003,0.00000036,0.,0.,0.00000050,0.,-0.00000003,0.00000059,
 -0.00000001,-0.00000003,0.00000049,0.,0.,0.00000112,-0.00000003,0.0000
 0002,0.00000254,0.00000004,-0.00000002,0.00000191,-0.00000016,-0.00000
 074,-0.00000897,0.00000010,-0.00000002,0.00000424,-0.00000027,0.000000
 69,0.00001597,0.00000121,-0.00000046,0.00000325,-0.00001203,0.00001951
 ,0.00033722,0.00006127,-0.00002056,0.00029193,0.00020574,0.00061342,0.
 01093079,-0.00307731,-0.01987277,0.02292841,-0.00000417,0.00000260,-0.
 00000014,0.00000221,-0.00000623,0.00000036,-0.00000191,0.00000560,-0.0
 0000032,0.00000084,-0.00000654,0.00000038,-0.00000082,0.00000534,-0.00
 000032,0.00000024,-0.00000693,0.00000041,-0.00000066,0.00000550,-0.000
 00033,0.00000007,-0.00000741,0.00000045,-0.00000058,0.00000578,-0.0000
 0034,0.00000032,-0.00000815,0.00000048,-0.00000088,0.00000621,-0.00000
 035,0.00000044,-0.00000894,0.00000053,-0.00000114,0.00000689,-0.000000
 41,0.00000058,-0.00001008,0.00000060,-0.00000132,0.00000757,-0.0000004
 5,0.00000062,-0.00001135,0.00000067,-0.00000155,0.00000849,-0.00000050
 ,0.00000070,-0.00001291,0.00000077,-0.00000184,0.00000966,-0.00000056,
 0.00000083,-0.00001486,0.00000087,-0.00000227,0.00001114,-0.00000065,0
 .00000107,-0.00001730,0.00000102,-0.00000294,0.00001305,-0.00000076,0.
 00000152,-0.00002041,0.00000121,-0.00000406,0.00001554,-0.00000091,0.0
 0000232,-0.00002454,0.00000144,-0.00000606,0.00001899,-0.00000110,0.00
 000370,-0.00003032,0.00000187,-0.00001015,0.00002447,-0.00000143,0.000
 00447,-0.00004032,0.00000200,-0.00002226,0.00003874,-0.00000213,-0.000
 01101,-0.00007454,0.00000626,-0.00009468,0.00013578,-0.00000798,-0.000
 25068,-0.00036240,0.00001478,-0.00064087,0.00131979,-0.00007373,-0.002
 57495,-0.00423868,0.00033358,-0.01883242,0.02010356,-0.00106760,-0.241
 27989,0.13593837,-0.00690802,-0.00000063,0.00000011,0.,0.00000009,-0.0
 0000021,0.00000001,0.00000011,0.00000098,-0.00000006,0.00000003,0.0000
 0008,0.,0.00000005,0.00000125,-0.00000007,0.00000007,0.00000023,-0.000
 00001,0.00000004,0.00000139,-0.00000008,0.00000013,0.00000034,-0.00000
 002,0.00000002,0.00000150,-0.00000009,0.00000011,0.00000043,-0.0000000
 3,-0.00000003,0.00000167,-0.00000010,0.00000010,0.00000057,-0.00000004
 ,-0.00000004,0.00000186,-0.00000011,0.00000011,0.00000066,-0.00000004,
 -0.00000006,0.00000219,-0.00000013,0.00000012,0.00000085,-0.00000005,-
 0.00000007,0.00000252,-0.00000015,0.00000013,0.00000102,-0.00000006,-0
 .00000009,0.00000291,-0.00000017,0.00000015,0.00000120,-0.00000007,-0.
 00000012,0.00000338,-0.00000020,0.00000017,0.00000142,-0.00000009,-0.0
 0000017,0.00000396,-0.00000023,0.00000020,0.00000168,-0.00000010,-0.00
 000024,0.00000467,-0.00000027,0.00000024,0.00000200,-0.00000012,-0.000
 00034,0.00000560,-0.00000033,0.00000029,0.00000240,-0.00000014,-0.0000
 0047,0.00000686,-0.00000040,0.00000045,0.00000288,-0.00000018,-0.00000
 062,0.00000863,-0.00000050,0.00000088,0.00000307,-0.00000006,0.0000007
 1,0.00001161,-0.00000069,0.00000142,-0.00000079,-0.00000038,0.00001590
 ,0.00001734,-0.00000098,0.00000524,-0.00007279,0.00000514,0.00013239,0
 .00012276,-0.00000969,0.00102680,-0.00009599,-0.00003962,0.00640333,-0
 .00498356,0.00027379,0.25614079,-0.00000011,-0.00000012,0.,0.00000010,
 0.00000020,-0.00000002,-0.00000017,-0.00000011,0.,0.00000005,0.0000001
 6,-0.00000001,0.00000006,-0.00000011,0.,-0.00000023,0.00000017,-0.0000
 0002,0.00000042,-0.00000013,0.,-0.00000025,0.00000003,0.,0.00000030,-0
 .00000006,0.,-0.00000033,0.,0.,0.00000032,0.00000003,0.,-0.00000033,-0
 .00000011,0.00000001,0.00000042,0.00000007,0.,-0.00000052,-0.00000012,
 0.,0.00000063,0.00000019,-0.00000002,-0.00000083,-0.00000021,0.0000000
 1,0.00000102,0.00000032,-0.00000002,-0.00000133,-0.00000034,0.00000002
 ,0.00000161,0.00000050,-0.00000005,-0.00000211,-0.00000051,0.00000005,
 0.00000255,0.00000080,-0.00000007,-0.00000338,-0.00000075,0.00000005,0
 .00000409,0.00000126,-0.00000011,-0.00000547,-0.00000112,0.00000012,0.
 00000669,0.00000204,-0.00000019,-0.00000908,-0.00000173,-0.00000005,0.
 00001129,0.00000347,-0.00000025,-0.00001572,-0.00000277,0.00000102,0.0
 0001981,0.00000662,-0.00000077,-0.00002943,-0.00000573,-0.00000349,0.0
 0003680,0.00001613,-0.00000062,-0.00006793,-0.00001922,0.00001987,0.00
 006190,0.00006700,-0.00000879,-0.00028279,-0.00013372,-0.00007677,-0.0
 0018567,0.00080914,-0.00003346,-0.00212315,-0.00096493,0.00076195,-0.0
 1281556,0.01073083,-0.00031793,0.14044760,-0.16194788,0.00699883,0.000
 00012,-0.00000004,0.,0.,0.00000004,0.,0.00000003,-0.00000008,0.0000000
 1,0.00000002,0.00000005,0.,-0.00000001,-0.00000005,0.,0.,0.00000005,0.
 ,-0.00000003,-0.00000001,0.,-0.00000003,0.00000003,0.,-0.00000005,0.00
 000002,0.,-0.00000002,0.00000003,0.,-0.00000003,0.00000002,0.,-0.00000
 001,0.,0.,-0.00000003,0.00000007,0.,-0.00000002,0.00000003,0.,-0.00000
 003,0.00000005,0.,-0.00000002,0.00000001,0.,-0.00000004,0.00000007,0.,
 -0.00000001,0.00000002,0.,-0.00000005,0.00000010,0.,-0.00000001,0.0000
 0002,0.,-0.00000006,0.00000014,0.,0.,0.00000002,0.,-0.00000009,0.00000
 020,0.,0.,0.00000002,0.00000001,-0.00000013,0.00000031,0.,0.00000003,0
 .00000002,0.,-0.00000021,0.00000048,0.,0.00000007,0.00000004,0.0000000
 8,-0.00000038,0.00000082,-0.00000001,0.00000020,0.00000009,-0.00000014
 ,-0.00000094,0.00000163,0.00000001,0.00000064,0.00000036,0.00000133,-0
 .00000173,0.00000351,-0.00000016,0.00000016,-0.00000164,-0.00000433,-0
 .00000651,0.00001068,0.00000091,0.00008520,-0.00000841,0.00000868,-0.0
 0037893,0.00039398,-0.00003828,0.00023318,0.00123041,-0.00048795,0.022
 86629,-0.01196626,0.00072055,-0.14784784,0.16177391,0.00000004,-0.0000
 0003,-0.00000031,-0.00000005,0.00000005,-0.00000010,0.00000003,-0.0000
 0002,-0.00000007,0.00000001,0.00000002,-0.00000010,-0.00000003,0.,-0.0
 0000010,0.,0.,-0.00000013,0.,0.,-0.00000004,0.,0.00000007,-0.00000004,
 0.,-0.00000006,0.00000002,-0.00000003,0.00000008,0.,0.,-0.00000004,0.,
 0.00000005,0.,-0.00000002,-0.00000002,0.00000003,-0.00000003,0.0000000
 2,0.00000002,-0.00000002,-0.00000001,-0.00000006,-0.00000003,0.0000000
 5,0.00000008,-0.00000004,-0.00000006,-0.00000008,-0.00000005,0.0000000
 7,0.00000010,-0.00000008,-0.00000008,-0.00000009,-0.00000008,0.0000001
 2,0.00000005,-0.00000007,-0.00000016,-0.00000011,-0.00000014,0.0000001
 9,0.00000014,-0.00000034,-0.00000020,-0.00000013,-0.00000016,0.0000003
 4,0.00000021,0.00000042,-0.00000039,-0.00000024,-0.00000049,0.00000050
 ,0.00000005,-0.00000349,-0.00000065,-0.00000029,0.00000028,0.00000100,
 0.00000112,0.00001283,-0.00000114,-0.00000078,-0.00000437,0.00000138,-
 0.00000341,-0.00006691,-0.00000208,-0.00000058,0.00000922,0.00000590,0
 .00001991,0.00030630,-0.00000357,-0.00000922,-0.00007391,0.00001002,-0
 .00007631,-0.00144383,0.00001607,-0.00004206,0.00023262,0.00020747,0.0
 0077405,0.01156374,0.00089515,-0.00050545,0.00419912,-0.00717683,0.007
 02451,-0.03152452,0.,0.,0.00000012,0.,0.00000002,0.00000013,0.,-0.0000
 0002,0.00000012,0.,-0.00000002,0.00000011,0.,0.,0.00000010,0.,-0.00000
 001,0.00000011,0.,0.00000002,0.00000010,0.,-0.00000003,0.00000007,0.,-
 0.00000003,0.00000002,0.,0.,0.,0.,-0.00000002,0.,0.,-0.00000003,0.,0.0
 0000002,0.,0.00000002,0.,-0.00000001,0.00000002,0.,0.,0.00000003,0.,0.
 00000002,0.00000003,0.,-0.00000002,0.00000004,0.,0.,0.00000005,0.,-0.0
 0000002,0.00000007,0.,0.,0.00000009,0.,0.,0.00000011,-0.00000001,0.,0.
 00000013,0.00000001,-0.00000003,0.00000017,0.,-0.00000001,0.00000025,0
 .,-0.00000004,0.00000025,0.,0.,0.00000015,0.00000002,-0.00000005,0.000
 00043,0.,0.00000005,0.00000136,0.00000002,-0.00000005,0.00000057,-0.00
 000004,-0.00000021,-0.00000228,0.00000008,-0.00000005,0.00000178,0.000
 00008,0.00000126,0.00002264,0.00000010,-0.00000023,0.00000066,-0.00000
 044,-0.00000432,-0.00007394,0.00000044,0.00000080,0.00002527,-0.000004
 29,0.00000958,0.00014482,0.00002022,-0.00004119,-0.00028186,-0.0000592
 4,-0.00048612,-0.00690155,-0.00138679,0.00087925,0.00225898,0.00747671
 ,-0.00754002,0.02159576\\0.00000607,0.00000182,-0.00000014,0.00000561,
 -0.00000024,-0.00000002,-0.00001364,-0.00000173,0.00000018,0.00001514,
 0.00000117,-0.00000015,-0.00001865,-0.00000128,0.00000019,0.00001958,0
 .00000195,-0.00000022,-0.00001882,-0.00000159,0.00000020,0.00001736,0.
 00000242,-0.00000024,-0.00001364,-0.00000119,0.00000015,0.00001091,0.0
 0000244,-0.00000021,-0.00000583,-0.00000080,0.00000008,0.00000282,0.00
 000219,-0.00000015,0.00000232,-0.00000052,0.00000001,-0.00000494,0.000
 00179,-0.00000009,0.00000925,-0.00000036,-0.00000004,-0.00001109,0.000
 00134,-0.00000003,0.00001396,-0.00000036,-0.00000007,-0.00001485,0.000
 00093,0.00000001,0.00001590,-0.00000051,-0.00000008,-0.00001582,0.0000
 0060,0.00000003,0.00001490,-0.00000080,-0.00000006,-0.00001388,0.00000
 042,0.00000002,0.00001107,-0.00000121,-0.00000002,-0.00000917,0.000000
 40,0.,0.00000485,-0.00000168,0.00000004,-0.00000221,0.00000053,-0.0000
 0005,-0.00000297,-0.00000210,0.00000011,0.00000600,0.00000080,-0.00000
 011,-0.00001107,-0.00000237,0.00000017,0.00001383,0.00000119,-0.000000
 18,-0.00001737,-0.00000239,0.00000022,0.00001917,0.00000158,-0.0000002
 3,-0.00001916,-0.00000195,0.00000021,0.00001970,0.00000080,-0.00000016
 ,-0.00001522,-0.00000047,0.00000009,0.00001391,0.00000161,-0.00000022,
 -0.00000572,-0.00000262,0.00000025,-0.00000153,-0.00000458,0.00000032,
 -0.00000190,-0.00000131,0.00000009,-0.00000314,-0.00000012,0.00000002,
 -0.00000247,0.00000029,0.,0.00000315,-0.00000063,0.00000002,-0.0000034
 3,0.00000080,-0.00000003,0.00000349,-0.00000096,0.00000003,-0.00000393
 ,0.00000042,0.,0.00000345,-0.00000084,0.00000003,-0.00000344,0.0000003
 7,0.,0.00000283,-0.00000090,0.00000004,-0.00000261,0.00000040,0.,0.000
 00199,-0.00000092,0.00000004,-0.00000171,0.00000040,-0.00000001,0.0000
 0116,-0.00000086,0.00000005,-0.00000091,0.00000038,-0.00000001,0.00000
 049,-0.00000075,0.00000005,-0.00000032,0.00000034,0.,0.00000005,-0.000
 00062,0.00000005,0.00000002,0.00000033,0.,-0.00000014,-0.00000049,0.00
 000005,0.00000010,0.00000038,0.,-0.00000005,-0.00000040,0.00000005,-0.
 00000008,0.00000048,0.,0.00000031,-0.00000038,0.00000005,-0.00000052,0
 .00000062,0.,0.00000092,-0.00000040,0.00000005,-0.00000118,0.00000077,
 0.,0.00000172,-0.00000043,0.00000005,-0.00000199,0.00000087,0.,0.00000
 261,-0.00000045,0.00000004,-0.00000283,0.00000090,-0.00000001,0.000003
 42,-0.00000046,0.00000003,-0.00000343,0.00000090,-0.00000001,0.0000039
 1,-0.00000055,0.00000003,-0.00000339,0.00000112,-0.00000003,0.00000338
 ,-0.00000114,0.00000006,-0.00000301,0.00000050,0.,0.00000283,0.0000006
 2,-0.00000008,0.00000577,-0.00000138,0.00000003,-0.00000788,0.00000787
 ,-0.00000045\\\@


 TRUST EVERYONE, BUT CUT THE CARDS.
 Job cpu time:       0 days  3 hours 24 minutes 29.1 seconds.
 Elapsed time:       0 days  0 hours 51 minutes  7.9 seconds.
 File lengths (MBytes):  RWF=   4233 Int=      0 D2E=      0 Chk=     61 Scr=      1
 Normal termination of Gaussian 16 at Fri Nov 10 01:57:27 2023.
