 Entering Gaussian System, Link 0=g16
 Input=./com/2.com
 Output=./log/2.log
 Initial command:
 /home/shohei/gaussian/g16/l1.exe "/home/shohei/gaussian/scratch/Gau-12522.inp" -scrdir="/home/shohei/gaussian/scratch/"
 Entering Link 1 = /home/shohei/gaussian/g16/l1.exe PID=     12524.
  
 Copyright (c) 1988-2017, Gaussian, Inc.  All Rights Reserved.
  
 This is part of the Gaussian(R) 16 program.  It is based on
 the Gaussian(R) 09 system (copyright 2009, Gaussian, Inc.),
 the Gaussian(R) 03 system (copyright 2003, Gaussian, Inc.),
 the Gaussian(R) 98 system (copyright 1998, Gaussian, Inc.),
 the Gaussian(R) 94 system (copyright 1995, Gaussian, Inc.),
 the Gaussian 92(TM) system (copyright 1992, Gaussian, Inc.),
 the Gaussian 90(TM) system (copyright 1990, Gaussian, Inc.),
 the Gaussian 88(TM) system (copyright 1988, Gaussian, Inc.),
 the Gaussian 86(TM) system (copyright 1986, Carnegie Mellon
 University), and the Gaussian 82(TM) system (copyright 1983,
 Carnegie Mellon University). Gaussian is a federally registered
 trademark of Gaussian, Inc.
  
 This software contains proprietary and confidential information,
 including trade secrets, belonging to Gaussian, Inc.
  
 This software is provided under written license and may be
 used, copied, transmitted, or stored only in accord with that
 written license.
  
 The following legend is applicable only to US Government
 contracts under FAR:
  
                    RESTRICTED RIGHTS LEGEND
  
 Use, reproduction and disclosure by the US Government is
 subject to restrictions as set forth in subparagraphs (a)
 and (c) of the Commercial Computer Software - Restricted
 Rights clause in FAR 52.227-19.
  
 Gaussian, Inc.
 340 Quinnipiac St., Bldg. 40, Wallingford CT 06492
  
  
 ---------------------------------------------------------------
 Warning -- This program may not be used in any manner that
 competes with the business of Gaussian, Inc. or will provide
 assistance to any competitor of Gaussian, Inc.  The licensee
 of this program is prohibited from giving any competitor of
 Gaussian, Inc. access to this program.  By using this program,
 the user acknowledges that Gaussian, Inc. is engaged in the
 business of creating and licensing software in the field of
 computational chemistry and represents and warrants to the
 licensee that it is not a competitor of Gaussian, Inc. and that
 it will not use this program in any manner prohibited above.
 ---------------------------------------------------------------
  

 Cite this work as:
 Gaussian 16, Revision B.01,
 M. J. Frisch, G. W. Trucks, H. B. Schlegel, G. E. Scuseria, 
 M. A. Robb, J. R. Cheeseman, G. Scalmani, V. Barone, 
 G. A. Petersson, H. Nakatsuji, X. Li, M. Caricato, A. V. Marenich, 
 J. Bloino, B. G. Janesko, R. Gomperts, B. Mennucci, H. P. Hratchian, 
 J. V. Ortiz, A. F. Izmaylov, J. L. Sonnenberg, D. Williams-Young, 
 F. Ding, F. Lipparini, F. Egidi, J. Goings, B. Peng, A. Petrone, 
 T. Henderson, D. Ranasinghe, V. G. Zakrzewski, J. Gao, N. Rega, 
 G. Zheng, W. Liang, M. Hada, M. Ehara, K. Toyota, R. Fukuda, 
 J. Hasegawa, M. Ishida, T. Nakajima, Y. Honda, O. Kitao, H. Nakai, 
 T. Vreven, K. Throssell, J. A. Montgomery, Jr., J. E. Peralta, 
 F. Ogliaro, M. J. Bearpark, J. J. Heyd, E. N. Brothers, K. N. Kudin, 
 V. N. Staroverov, T. A. Keith, R. Kobayashi, J. Normand, 
 K. Raghavachari, A. P. Rendell, J. C. Burant, S. S. Iyengar, 
 J. Tomasi, M. Cossi, J. M. Millam, M. Klene, C. Adamo, R. Cammi, 
 J. W. Ochterski, R. L. Martin, K. Morokuma, O. Farkas, 
 J. B. Foresman, and D. J. Fox, Gaussian, Inc., Wallingford CT, 2016.
 
 ******************************************
 Gaussian 16:  EM64L-G16RevB.01 20-Dec-2017
                 9-Nov-2023 
 ******************************************
 %chk=checkpoint.chk
 ---------------------------
 # B3LYP/6-31G(d,p) OPT FREQ
 ---------------------------
 1/18=20,19=15,26=3,38=1/1,3;
 2/9=110,12=2,17=6,18=5,40=1/2;
 3/5=1,6=6,7=101,11=2,25=1,30=1,71=1,74=-5/1,2,3;
 4//1;
 5/5=2,38=5/2;
 6/7=2,8=2,9=2,10=2,28=1/1;
 7//1,2,3,16;
 1/18=20,19=15,26=3/3(2);
 2/9=110/2;
 99//99;
 2/9=110/2;
 3/5=1,6=6,7=101,11=2,25=1,30=1,71=1,74=-5/1,2,3;
 4/5=5,16=3,69=1/1;
 5/5=2,38=5/2;
 7//1,2,3,16;
 1/18=20,19=15,26=3/3(-5);
 2/9=110/2;
 6/7=2,8=2,9=2,10=2,19=2,28=1/1;
 99/9=1/99;
 -----
 2poly
 -----
 Symbolic Z-matrix:
 Charge =  0 Multiplicity = 1
 C                    -2.27415   1.2454    0.02727 
 C                    -1.02908   1.72427  -0.02362 
 C                     0.1379    0.81984   0.01017 
 C                     1.38307   1.29839  -0.041 
 H                    -3.11856   1.92657   0.00119 
 H                    -2.46329   0.17805   0.09487 
 H                    -0.88012   2.79867  -0.09097 
 H                    -0.01122  -0.25452   0.07772 
 H                     1.57258   2.36564  -0.10889 
 H                     2.22722   0.61688  -0.01493 
 

 GradGradGradGradGradGradGradGradGradGradGradGradGradGradGradGradGradGrad
 Berny optimization.
 Initialization pass.
                           ----------------------------
                           !    Initial Parameters    !
                           ! (Angstroms and Degrees)  !
 --------------------------                            --------------------------
 ! Name  Definition              Value          Derivative Info.                !
 --------------------------------------------------------------------------------
 ! R1    R(1,2)                  1.3349         estimate D2E/DX2                !
 ! R2    R(1,5)                  1.0852         estimate D2E/DX2                !
 ! R3    R(1,6)                  1.0861         estimate D2E/DX2                !
 ! R4    R(2,3)                  1.4768         estimate D2E/DX2                !
 ! R5    R(2,7)                  1.0868         estimate D2E/DX2                !
 ! R6    R(3,4)                  1.3349         estimate D2E/DX2                !
 ! R7    R(3,8)                  1.0868         estimate D2E/DX2                !
 ! R8    R(4,9)                  1.0861         estimate D2E/DX2                !
 ! R9    R(4,10)                 1.0852         estimate D2E/DX2                !
 ! A1    A(2,1,5)              119.9759         estimate D2E/DX2                !
 ! A2    A(2,1,6)              121.1527         estimate D2E/DX2                !
 ! A3    A(5,1,6)              118.8714         estimate D2E/DX2                !
 ! A4    A(1,2,3)              121.094          estimate D2E/DX2                !
 ! A5    A(1,2,7)              119.0017         estimate D2E/DX2                !
 ! A6    A(3,2,7)              119.9043         estimate D2E/DX2                !
 ! A7    A(2,3,4)              121.1077         estimate D2E/DX2                !
 ! A8    A(2,3,8)              119.8954         estimate D2E/DX2                !
 ! A9    A(4,3,8)              118.9968         estimate D2E/DX2                !
 ! A10   A(3,4,9)              121.1596         estimate D2E/DX2                !
 ! A11   A(3,4,10)             119.9673         estimate D2E/DX2                !
 ! A12   A(9,4,10)             118.8732         estimate D2E/DX2                !
 ! D1    D(5,1,2,3)           -179.9986         estimate D2E/DX2                !
 ! D2    D(5,1,2,7)             -0.0002         estimate D2E/DX2                !
 ! D3    D(6,1,2,3)             -0.0008         estimate D2E/DX2                !
 ! D4    D(6,1,2,7)            179.9976         estimate D2E/DX2                !
 ! D5    D(1,2,3,4)            179.9847         estimate D2E/DX2                !
 ! D6    D(1,2,3,8)             -0.0137         estimate D2E/DX2                !
 ! D7    D(7,2,3,4)             -0.0137         estimate D2E/DX2                !
 ! D8    D(7,2,3,8)            179.9879         estimate D2E/DX2                !
 ! D9    D(2,3,4,9)             -0.0008         estimate D2E/DX2                !
 ! D10   D(2,3,4,10)          -179.9986         estimate D2E/DX2                !
 ! D11   D(8,3,4,9)            179.9976         estimate D2E/DX2                !
 ! D12   D(8,3,4,10)            -0.0002         estimate D2E/DX2                !
 --------------------------------------------------------------------------------
 Trust Radius=3.00D-01 FncErr=1.00D-07 GrdErr=1.00D-06 EigMax=2.50D+02 EigMin=1.00D-04
 Number of steps in this run=     43 maximum allowed number of steps=    100.
 GradGradGradGradGradGradGradGradGradGradGradGradGradGradGradGradGradGrad

                          Input orientation:                          
 ---------------------------------------------------------------------
 Center     Atomic      Atomic             Coordinates (Angstroms)
 Number     Number       Type             X           Y           Z
 ---------------------------------------------------------------------
      1          6           0       -2.274150    1.245399    0.027267
      2          6           0       -1.029084    1.724265   -0.023616
      3          6           0        0.137901    0.819840    0.010171
      4          6           0        1.383069    1.298388   -0.041000
      5          1           0       -3.118559    1.926571    0.001186
      6          1           0       -2.463287    0.178053    0.094867
      7          1           0       -0.880121    2.798674   -0.090970
      8          1           0       -0.011223   -0.254520    0.077724
      9          1           0        1.572584    2.365643   -0.108886
     10          1           0        2.227218    0.616883   -0.014934
 ---------------------------------------------------------------------
                    Distance matrix (angstroms):
                    1          2          3          4          5
     1  C    0.000000
     2  C    1.334949   0.000000
     3  C    2.449364   1.476815   0.000000
     4  C    3.658240   2.449522   1.334942   0.000000
     5  H    1.085220   2.099392   3.439399   4.545443   0.000000
     6  H    1.086080   2.112285   2.680530   4.008499   1.869618
     7  H    2.090444   1.086775   2.227640   2.715766   2.404092
     8  H    2.715353   2.227533   1.086762   2.090375   3.797177
     9  H    4.008845   2.680916   2.112344   1.086075   4.712931
    10  H    4.545231   3.439458   2.099301   1.085226   5.503896
                    6          7          8          9         10
     6  H    0.000000
     7  H    3.067344   0.000000
     8  H    2.489986   3.178904   0.000000
     9  H    4.595141   2.490702   3.067332   0.000000
    10  H    4.712267   3.797571   2.403861   1.869635   0.000000
 Stoichiometry    C4H6
 Framework group  C1[X(C4H6)]
 Deg. of freedom    24
 Full point group                 C1      NOp   1
 Largest Abelian subgroup         C1      NOp   1
 Largest concise Abelian subgroup C1      NOp   1
                         Standard orientation:                         
 ---------------------------------------------------------------------
 Center     Atomic      Atomic             Coordinates (Angstroms)
 Number     Number       Type             X           Y           Z
 ---------------------------------------------------------------------
      1          6           0        1.824966   -0.122813    0.000067
      2          6           0        0.606166    0.421811   -0.000086
      3          6           0       -0.606101   -0.421629   -0.000086
      4          6           0       -1.825026    0.122700    0.000067
      5          1           0        2.703522    0.514244    0.000087
      6          1           0        1.958740   -1.200623    0.000209
      7          1           0        0.512881    1.504574   -0.000185
      8          1           0       -0.512651   -1.504365   -0.000185
      9          1           0       -1.959185    1.200457    0.000209
     10          1           0       -2.703339   -0.514702    0.000087
 ---------------------------------------------------------------------
 Rotational constants (GHZ):          40.0157177           4.5224004           4.0631959
 Standard basis: 6-31G(d,p) (6D, 7F)
 There are    90 symmetry adapted cartesian basis functions of A   symmetry.
 There are    90 symmetry adapted basis functions of A   symmetry.
    90 basis functions,   154 primitive gaussians,    90 cartesian basis functions
    15 alpha electrons       15 beta electrons
       nuclear repulsion energy       103.8560632285 Hartrees.
 NAtoms=   10 NActive=   10 NUniq=   10 SFac= 1.00D+00 NAtFMM=   60 NAOKFM=F Big=F
 Integral buffers will be    131072 words long.
 Raffenetti 2 integral format.
 Two-electron integral symmetry is turned on.
 One-electron integrals computed using PRISM.
 NBasis=    90 RedAO= T EigKep=  3.35D-03  NBF=    90
 NBsUse=    90 1.00D-06 EigRej= -1.00D+00 NBFU=    90
 ExpMin= 1.61D-01 ExpMax= 3.05D+03 ExpMxC= 4.57D+02 IAcc=3 IRadAn=         5 AccDes= 0.00D+00
 Harris functional with IExCor=  402 and IRadAn=       5 diagonalized for initial guess.
 HarFok:  IExCor=  402 AccDes= 0.00D+00 IRadAn=         5 IDoV= 1 UseB2=F ITyADJ=14
 ICtDFT=  3500011 ScaDFX=  1.000000  1.000000  1.000000  1.000000
 FoFCou: FMM=F IPFlag=           0 FMFlag=      100000 FMFlg1=           0
         NFxFlg=           0 DoJE=T BraDBF=F KetDBF=T FulRan=T
         wScrn=  0.000000 ICntrl=       500 IOpCl=  0 I1Cent=   200000004 NGrid=           0
         NMat0=    1 NMatS0=      1 NMatT0=    0 NMatD0=    1 NMtDS0=    0 NMtDT0=    0
 Petite list used in FoFCou.
 Keep R1 ints in memory in canonical form, NReq=9301743.
 Requested convergence on RMS density matrix=1.00D-08 within 128 cycles.
 Requested convergence on MAX density matrix=1.00D-06.
 Requested convergence on             energy=1.00D-06.
 No special actions if energy rises.
 Integral accuracy reduced to 1.0D-05 until final iterations.
 Initial convergence to 1.0D-05 achieved.  Increase integral accuracy.
 SCF Done:  E(RB3LYP) =  -155.999712880     A.U. after   11 cycles
            NFock= 11  Conv=0.70D-08     -V/T= 2.0101

 **********************************************************************

            Population analysis using the SCF Density.

 **********************************************************************

 Orbital symmetries:
       Occupied  (A) (A) (A) (A) (A) (A) (A) (A) (A) (A) (A) (A)
                 (A) (A) (A)
       Virtual   (A) (A) (A) (A) (A) (A) (A) (A) (A) (A) (A) (A)
                 (A) (A) (A) (A) (A) (A) (A) (A) (A) (A) (A) (A)
                 (A) (A) (A) (A) (A) (A) (A) (A) (A) (A) (A) (A)
                 (A) (A) (A) (A) (A) (A) (A) (A) (A) (A) (A) (A)
                 (A) (A) (A) (A) (A) (A) (A) (A) (A) (A) (A) (A)
                 (A) (A) (A) (A) (A) (A) (A) (A) (A) (A) (A) (A)
                 (A) (A) (A)
 The electronic state is 1-A.
 Alpha  occ. eigenvalues --  -10.19191 -10.19161 -10.18077 -10.18076  -0.80113
 Alpha  occ. eigenvalues --   -0.73053  -0.59492  -0.55176  -0.46326  -0.45840
 Alpha  occ. eigenvalues --   -0.38511  -0.38457  -0.34594  -0.31912  -0.22965
 Alpha virt. eigenvalues --   -0.01817   0.07974   0.11468   0.12598   0.12849
 Alpha virt. eigenvalues --    0.17941   0.18950   0.21333   0.32484   0.32743
 Alpha virt. eigenvalues --    0.38985   0.48169   0.51369   0.53075   0.57942
 Alpha virt. eigenvalues --    0.60768   0.61875   0.65442   0.67485   0.67492
 Alpha virt. eigenvalues --    0.70156   0.82347   0.83797   0.84109   0.86990
 Alpha virt. eigenvalues --    0.92138   0.92611   0.94917   1.06723   1.09559
 Alpha virt. eigenvalues --    1.14035   1.30534   1.31341   1.35719   1.35977
 Alpha virt. eigenvalues --    1.41842   1.45627   1.51596   1.75752   1.84894
 Alpha virt. eigenvalues --    1.86371   1.94945   1.95231   1.97821   1.99766
 Alpha virt. eigenvalues --    2.04477   2.07830   2.16245   2.22328   2.25023
 Alpha virt. eigenvalues --    2.33166   2.40117   2.42628   2.46640   2.50751
 Alpha virt. eigenvalues --    2.53900   2.56051   2.66524   2.68780   2.68789
 Alpha virt. eigenvalues --    2.69912   2.71929   2.85809   2.96727   2.98738
 Alpha virt. eigenvalues --    3.25452   3.29960   3.40719   3.45557   3.66477
 Alpha virt. eigenvalues --    3.72620   4.13904   4.21199   4.37986   4.64455
          Condensed to atoms (all electrons):
               1          2          3          4          5          6
     1  C    4.951137   0.630511  -0.035481   0.003660   0.369517   0.383963
     2  C    0.630511   4.721992   0.446740  -0.035498  -0.021515  -0.037295
     3  C   -0.035481   0.446740   4.721978   0.630516   0.004407  -0.012356
     4  C    0.003660  -0.035498   0.630516   4.951154  -0.000277   0.000499
     5  H    0.369517  -0.021515   0.004407  -0.000277   0.601624  -0.042378
     6  H    0.383963  -0.037295  -0.012356   0.000499  -0.042378   0.599556
     7  H   -0.049637   0.381068  -0.046049  -0.005725  -0.008139   0.005933
     8  H   -0.005731  -0.046059   0.381073  -0.049637   0.000045   0.004731
     9  H    0.000498  -0.012350  -0.037290   0.383962  -0.000006   0.000013
    10  H   -0.000277   0.004408  -0.021509   0.369515   0.000004  -0.000006
               7          8          9         10
     1  C   -0.049637  -0.005731   0.000498  -0.000277
     2  C    0.381068  -0.046059  -0.012350   0.004408
     3  C   -0.046049   0.381073  -0.037290  -0.021509
     4  C   -0.005725  -0.049637   0.383962   0.369515
     5  H   -0.008139   0.000045  -0.000006   0.000004
     6  H    0.005933   0.004731   0.000013  -0.000006
     7  H    0.627250   0.004401   0.004726   0.000045
     8  H    0.004401   0.627269   0.005933  -0.008145
     9  H    0.004726   0.005933   0.599551  -0.042378
    10  H    0.000045  -0.008145  -0.042378   0.601629
 Mulliken charges:
               1
     1  C   -0.248160
     2  C   -0.032003
     3  C   -0.032028
     4  C   -0.248168
     5  H    0.096718
     6  H    0.097341
     7  H    0.086126
     8  H    0.086119
     9  H    0.097340
    10  H    0.096715
 Sum of Mulliken charges =  -0.00000
 Mulliken charges with hydrogens summed into heavy atoms:
               1
     1  C   -0.054101
     2  C    0.054124
     3  C    0.054090
     4  C   -0.054113
 Electronic spatial extent (au):  <R**2>=            331.2649
 Charge=             -0.0000 electrons
 Dipole moment (field-independent basis, Debye):
    X=              0.0002    Y=              0.0000    Z=              0.0000  Tot=              0.0002
 Quadrupole moment (field-independent basis, Debye-Ang):
   XX=            -23.3653   YY=            -22.3343   ZZ=            -27.8649
   XY=              0.1546   XZ=             -0.0000   YZ=              0.0000
 Traceless Quadrupole moment (field-independent basis, Debye-Ang):
   XX=              1.1562   YY=              2.1872   ZZ=             -3.3434
   XY=              0.1546   XZ=             -0.0000   YZ=              0.0000
 Octapole moment (field-independent basis, Debye-Ang**2):
  XXX=              0.0018  YYY=              0.0005  ZZZ=             -0.0000  XYY=             -0.0006
  XXY=              0.0004  XXZ=              0.0012  XZZ=              0.0001  YZZ=              0.0000
  YYZ=             -0.0001  XYZ=             -0.0007
 Hexadecapole moment (field-independent basis, Debye-Ang**3):
 XXXX=           -336.6917 YYYY=            -64.7512 ZZZZ=            -28.8462 XXXY=              6.0647
 XXXZ=             -0.0000 YYYX=             -1.0386 YYYZ=             -0.0000 ZZZX=             -0.0000
 ZZZY=              0.0000 XXYY=            -65.7857 XXZZ=            -70.9992 YYZZ=            -17.5205
 XXYZ=              0.0000 YYXZ=             -0.0000 ZZXY=             -0.1206
 N-N= 1.038560632285D+02 E-N=-5.682266341722D+02  KE= 1.544394481675D+02
 Calling FoFJK, ICntrl=      2127 FMM=F ISym2X=0 I1Cent= 0 IOpClX= 0 NMat=1 NMatS=1 NMatT=0.
 ***** Axes restored to original set *****
 -------------------------------------------------------------------
 Center     Atomic                   Forces (Hartrees/Bohr)
 Number     Number              X              Y              Z
 -------------------------------------------------------------------
      1        6          -0.005416313    0.005113067   -0.000212223
      2        6           0.003375638   -0.021143403    0.001214488
      3        6          -0.003376609    0.021147094   -0.001216139
      4        6           0.005417253   -0.005117902    0.000212103
      5        1          -0.002980712   -0.003318759    0.000252587
      6        1          -0.002374734    0.000579110    0.000008901
      7        1           0.005566794   -0.000259098   -0.000083462
      8        1          -0.005566544    0.000248794    0.000083999
      9        1           0.002370149   -0.000576012   -0.000005849
     10        1           0.002985078    0.003327110   -0.000254405
 -------------------------------------------------------------------
 Cartesian Forces:  Max     0.021147094 RMS     0.006178332

 GradGradGradGradGradGradGradGradGradGradGradGradGradGradGradGradGradGrad
 Berny optimization.
 FormGI is forming the generalized inverse of G from B-inverse, IUseBI=4.
 Internal  Forces:  Max     0.011338184 RMS     0.005132039
 Search for a local minimum.
 Step number   1 out of a maximum of   43
 All quantities printed in internal units (Hartrees-Bohrs-Radians)
 Mixed Optimization -- RFO/linear search
 Second derivative matrix not updated -- first step.
 ITU=  0
     Eigenvalues ---    0.01073   0.02003   0.02003   0.02949   0.02949
     Eigenvalues ---    0.02949   0.02949   0.16000   0.16000   0.16000
     Eigenvalues ---    0.16000   0.16000   0.16000   0.22000   0.22000
     Eigenvalues ---    0.34937   0.35188   0.35190   0.35270   0.35270
     Eigenvalues ---    0.35370   0.35371   0.58352   0.58354
 RFO step:  Lambda=-3.59663575D-03 EMin= 1.07264529D-02
 Linear search not attempted -- first point.
 Iteration  1 RMS(Cart)=  0.03503618 RMS(Int)=  0.00036327
 Iteration  2 RMS(Cart)=  0.00059876 RMS(Int)=  0.00000019
 Iteration  3 RMS(Cart)=  0.00000005 RMS(Int)=  0.00000019
 Variable       Old X    -DE/DX   Delta X   Delta X   Delta X     New X
                                 (Linear)    (Quad)   (Total)
    R1        2.52269   0.00920   0.00000   0.01566   0.01566   2.53835
    R2        2.05077   0.00023   0.00000   0.00064   0.00064   2.05141
    R3        2.05239  -0.00016   0.00000  -0.00044  -0.00044   2.05196
    R4        2.79078  -0.01024   0.00000  -0.02900  -0.02900   2.76178
    R5        2.05371   0.00051   0.00000   0.00144   0.00144   2.05515
    R6        2.52267   0.00920   0.00000   0.01567   0.01567   2.53835
    R7        2.05368   0.00052   0.00000   0.00147   0.00147   2.05515
    R8        2.05238  -0.00015   0.00000  -0.00043  -0.00043   2.05196
    R9        2.05078   0.00023   0.00000   0.00063   0.00063   2.05141
    A1        2.09397   0.00443   0.00000   0.02709   0.02709   2.12106
    A2        2.11451   0.00029   0.00000   0.00176   0.00176   2.11627
    A3        2.07470  -0.00472   0.00000  -0.02885  -0.02885   2.04585
    A4        2.11349   0.01128   0.00000   0.05044   0.05044   2.16393
    A5        2.07697   0.00006   0.00000   0.00961   0.00961   2.08659
    A6        2.09273  -0.01134   0.00000  -0.06006  -0.06006   2.03267
    A7        2.11373   0.01124   0.00000   0.05029   0.05029   2.16401
    A8        2.09257  -0.01132   0.00000  -0.05997  -0.05997   2.03260
    A9        2.07689   0.00008   0.00000   0.00968   0.00968   2.08657
   A10        2.11463   0.00027   0.00000   0.00168   0.00168   2.11631
   A11        2.09382   0.00445   0.00000   0.02719   0.02719   2.12101
   A12        2.07473  -0.00472   0.00000  -0.02886  -0.02886   2.04586
    D1       -3.14157  -0.00000   0.00000  -0.00001  -0.00001  -3.14158
    D2       -0.00000   0.00000   0.00000   0.00001   0.00001   0.00001
    D3       -0.00001   0.00000   0.00000   0.00003   0.00003   0.00002
    D4        3.14155   0.00000   0.00000   0.00006   0.00006  -3.14157
    D5        3.14133   0.00000   0.00000   0.00015   0.00015   3.14147
    D6       -0.00024   0.00000   0.00000   0.00012   0.00012  -0.00012
    D7       -0.00024   0.00000   0.00000   0.00012   0.00012  -0.00012
    D8        3.14138   0.00000   0.00000   0.00009   0.00010   3.14148
    D9       -0.00001   0.00000   0.00000   0.00003   0.00003   0.00002
   D10       -3.14157  -0.00000   0.00000  -0.00001  -0.00001  -3.14158
   D11        3.14155   0.00000   0.00000   0.00006   0.00006  -3.14157
   D12       -0.00000   0.00000   0.00000   0.00001   0.00001   0.00001
         Item               Value     Threshold  Converged?
 Maximum Force            0.011338     0.000450     NO 
 RMS     Force            0.005132     0.000300     NO 
 Maximum Displacement     0.086353     0.001800     NO 
 RMS     Displacement     0.034798     0.001200     NO 
 Predicted change in Energy=-1.828787D-03
 GradGradGradGradGradGradGradGradGradGradGradGradGradGradGradGradGradGrad

                          Input orientation:                          
 ---------------------------------------------------------------------
 Center     Atomic      Atomic             Coordinates (Angstroms)
 Number     Number       Type             X           Y           Z
 ---------------------------------------------------------------------
      1          6           0       -2.298529    1.241803    0.027938
      2          6           0       -1.037107    1.700715   -0.022119
      3          6           0        0.145963    0.843220    0.008551
      4          6           0        1.407418    1.302017   -0.041632
      5          1           0       -3.149189    1.915722    0.002419
      6          1           0       -2.508983    0.178704    0.095763
      7          1           0       -0.858082    2.771277   -0.089819
      8          1           0       -0.033131   -0.227327    0.076364
      9          1           0        1.618000    2.365084   -0.109538
     10          1           0        2.257989    0.627982   -0.016118
 ---------------------------------------------------------------------
                    Distance matrix (angstroms):
                    1          2          3          4          5
     1  C    0.000000
     2  C    1.343239   0.000000
     3  C    2.476850   1.461470   0.000000
     4  C    3.707089   2.476902   1.343235   0.000000
     5  H    1.085561   2.123139   3.465304   4.597961   0.000000
     6  H    1.085850   2.120573   2.738234   4.076629   1.853594
     7  H    2.104292   1.087537   2.176049   2.700655   2.447377
     8  H    2.700502   2.176008   1.087540   2.104281   3.782584
     9  H    4.076746   2.738362   2.120591   1.085849   4.789630
    10  H    4.597887   3.465321   2.123108   1.085562   5.558434
                    6          7          8          9         10
     6  H    0.000000
     7  H    3.079180   0.000000
     8  H    2.509000   3.114448   0.000000
     9  H    4.674869   2.509256   3.079186   0.000000
    10  H    4.789403   3.782729   2.447312   1.853600   0.000000
 Stoichiometry    C4H6
 Framework group  C1[X(C4H6)]
 Deg. of freedom    24
 Full point group                 C1      NOp   1
 Largest Abelian subgroup         C1      NOp   1
 Largest concise Abelian subgroup C1      NOp   1
                         Standard orientation:                         
 ---------------------------------------------------------------------
 Center     Atomic      Atomic             Coordinates (Angstroms)
 Number     Number       Type             X           Y           Z
 ---------------------------------------------------------------------
      1          6           0        1.850214   -0.110918    0.000031
      2          6           0        0.609335    0.403388   -0.000034
      3          6           0       -0.609316   -0.403323   -0.000034
      4          6           0       -1.850234    0.110877    0.000031
      5          1           0        2.728900    0.526540    0.000038
      6          1           0        2.015228   -1.184156    0.000071
      7          1           0        0.476044    1.482726   -0.000091
      8          1           0       -0.475952   -1.482655   -0.000091
      9          1           0       -2.015379    1.184094    0.000071
     10          1           0       -2.728836   -0.526699    0.000038
 ---------------------------------------------------------------------
 Rotational constants (GHZ):          42.0659028           4.4050975           3.9875277
 Standard basis: 6-31G(d,p) (6D, 7F)
 There are    90 symmetry adapted cartesian basis functions of A   symmetry.
 There are    90 symmetry adapted basis functions of A   symmetry.
    90 basis functions,   154 primitive gaussians,    90 cartesian basis functions
    15 alpha electrons       15 beta electrons
       nuclear repulsion energy       103.4691774750 Hartrees.
 NAtoms=   10 NActive=   10 NUniq=   10 SFac= 1.00D+00 NAtFMM=   60 NAOKFM=F Big=F
 Integral buffers will be    131072 words long.
 Raffenetti 2 integral format.
 Two-electron integral symmetry is turned on.
 One-electron integrals computed using PRISM.
 NBasis=    90 RedAO= T EigKep=  3.47D-03  NBF=    90
 NBsUse=    90 1.00D-06 EigRej= -1.00D+00 NBFU=    90
 Initial guess from the checkpoint file:  "checkpoint.chk"
 B after Tr=    -0.000000    0.000000   -0.000000
         Rot=    0.999995    0.000000   -0.000000   -0.003036 Ang=   0.35 deg.
 ExpMin= 1.61D-01 ExpMax= 3.05D+03 ExpMxC= 4.57D+02 IAcc=3 IRadAn=         5 AccDes= 0.00D+00
 Harris functional with IExCor=  402 and IRadAn=       5 diagonalized for initial guess.
 HarFok:  IExCor=  402 AccDes= 0.00D+00 IRadAn=         5 IDoV= 1 UseB2=F ITyADJ=14
 ICtDFT=  3500011 ScaDFX=  1.000000  1.000000  1.000000  1.000000
 FoFCou: FMM=F IPFlag=           0 FMFlag=      100000 FMFlg1=           0
         NFxFlg=           0 DoJE=T BraDBF=F KetDBF=T FulRan=T
         wScrn=  0.000000 ICntrl=       500 IOpCl=  0 I1Cent=   200000004 NGrid=           0
         NMat0=    1 NMatS0=      1 NMatT0=    0 NMatD0=    1 NMtDS0=    0 NMtDT0=    0
 Petite list used in FoFCou.
 Keep R1 ints in memory in canonical form, NReq=9301743.
 Requested convergence on RMS density matrix=1.00D-08 within 128 cycles.
 Requested convergence on MAX density matrix=1.00D-06.
 Requested convergence on             energy=1.00D-06.
 No special actions if energy rises.
 Integral accuracy reduced to 1.0D-05 until final iterations.
 Initial convergence to 1.0D-05 achieved.  Increase integral accuracy.
 SCF Done:  E(RB3LYP) =  -156.001605329     A.U. after   10 cycles
            NFock= 10  Conv=0.80D-08     -V/T= 2.0104
 Calling FoFJK, ICntrl=      2127 FMM=F ISym2X=0 I1Cent= 0 IOpClX= 0 NMat=1 NMatS=1 NMatT=0.
 ***** Axes restored to original set *****
 -------------------------------------------------------------------
 Center     Atomic                   Forces (Hartrees/Bohr)
 Number     Number              X              Y              Z
 -------------------------------------------------------------------
      1        6           0.003769002    0.002902063   -0.000240424
      2        6          -0.001710913   -0.005312560    0.000351076
      3        6           0.001706985    0.005308720   -0.000350357
      4        6          -0.003767941   -0.002902237    0.000243765
      5        1          -0.000010424   -0.000779042    0.000047196
      6        1          -0.000695559   -0.000551487    0.000045069
      7        1           0.000375334    0.001320450   -0.000087656
      8        1          -0.000373049   -0.001319739    0.000084903
      9        1           0.000694396    0.000552084   -0.000046224
     10        1           0.000012167    0.000781747   -0.000047347
 -------------------------------------------------------------------
 Cartesian Forces:  Max     0.005312560 RMS     0.001953116

 GradGradGradGradGradGradGradGradGradGradGradGradGradGradGradGradGradGrad
 Berny optimization.
 Using GEDIIS/GDIIS optimizer.
 FormGI is forming the generalized inverse of G from B-inverse, IUseBI=4.
 Internal  Forces:  Max     0.003418922 RMS     0.001105159
 Search for a local minimum.
 Step number   2 out of a maximum of   43
 All quantities printed in internal units (Hartrees-Bohrs-Radians)
 Mixed Optimization -- RFO/linear search
 Update second derivatives using D2CorX and points    1    2
 DE= -1.89D-03 DEPred=-1.83D-03 R= 1.03D+00
 TightC=F SS=  1.41D+00  RLast= 1.30D-01 DXNew= 5.0454D-01 3.9050D-01
 Trust test= 1.03D+00 RLast= 1.30D-01 DXMaxT set to 3.90D-01
 ITU=  1  0
 Use linear search instead of GDIIS.
     Eigenvalues ---    0.01073   0.02038   0.02038   0.02949   0.02949
     Eigenvalues ---    0.02949   0.02949   0.15091   0.16000   0.16000
     Eigenvalues ---    0.16000   0.16000   0.16207   0.21006   0.22000
     Eigenvalues ---    0.33827   0.35189   0.35238   0.35270   0.35335
     Eigenvalues ---    0.35371   0.35500   0.58353   0.63246
 RFO step:  Lambda=-9.84162105D-05 EMin= 1.07264515D-02
 Quartic linear search produced a step of  0.05527.
 Iteration  1 RMS(Cart)=  0.00287233 RMS(Int)=  0.00000746
 Iteration  2 RMS(Cart)=  0.00001178 RMS(Int)=  0.00000001
 Iteration  3 RMS(Cart)=  0.00000000 RMS(Int)=  0.00000001
 Variable       Old X    -DE/DX   Delta X   Delta X   Delta X     New X
                                 (Linear)    (Quad)   (Total)
    R1        2.53835  -0.00342   0.00087  -0.00663  -0.00576   2.53259
    R2        2.05141  -0.00048   0.00004  -0.00144  -0.00140   2.05001
    R3        2.05196   0.00068  -0.00002   0.00204   0.00201   2.05397
    R4        2.76178  -0.00282  -0.00160  -0.00768  -0.00929   2.75249
    R5        2.05515   0.00137   0.00008   0.00406   0.00414   2.05928
    R6        2.53835  -0.00342   0.00087  -0.00662  -0.00576   2.53259
    R7        2.05515   0.00137   0.00008   0.00405   0.00413   2.05929
    R8        2.05196   0.00068  -0.00002   0.00204   0.00202   2.05397
    R9        2.05141  -0.00048   0.00004  -0.00144  -0.00141   2.05001
    A1        2.12106   0.00045   0.00150   0.00218   0.00368   2.12474
    A2        2.11627   0.00036   0.00010   0.00235   0.00245   2.11872
    A3        2.04585  -0.00082  -0.00159  -0.00453  -0.00613   2.03973
    A4        2.16393   0.00077   0.00279   0.00225   0.00503   2.16896
    A5        2.08659  -0.00023   0.00053  -0.00111  -0.00058   2.08600
    A6        2.03267  -0.00054  -0.00332  -0.00113  -0.00445   2.02822
    A7        2.16401   0.00076   0.00278   0.00220   0.00498   2.16899
    A8        2.03260  -0.00054  -0.00331  -0.00109  -0.00441   2.02820
    A9        2.08657  -0.00023   0.00054  -0.00111  -0.00057   2.08600
   A10        2.11631   0.00036   0.00009   0.00233   0.00242   2.11873
   A11        2.12101   0.00046   0.00150   0.00221   0.00372   2.12473
   A12        2.04586  -0.00082  -0.00160  -0.00454  -0.00613   2.03973
    D1       -3.14158   0.00000  -0.00000   0.00000   0.00000  -3.14158
    D2        0.00001  -0.00000   0.00000  -0.00001  -0.00000   0.00000
    D3        0.00002  -0.00000   0.00000  -0.00001  -0.00001   0.00001
    D4       -3.14157  -0.00000   0.00000  -0.00002  -0.00002   3.14159
    D5        3.14147   0.00000   0.00001   0.00007   0.00008   3.14156
    D6       -0.00012   0.00000   0.00001   0.00008   0.00009  -0.00003
    D7       -0.00012   0.00000   0.00001   0.00008   0.00009  -0.00003
    D8        3.14148   0.00000   0.00001   0.00009   0.00009   3.14157
    D9        0.00002  -0.00000   0.00000  -0.00001  -0.00001   0.00001
   D10       -3.14158   0.00000  -0.00000   0.00000   0.00000  -3.14158
   D11       -3.14157  -0.00000   0.00000  -0.00002  -0.00002   3.14159
   D12        0.00001  -0.00000   0.00000  -0.00001  -0.00000   0.00000
         Item               Value     Threshold  Converged?
 Maximum Force            0.003419     0.000450     NO 
 RMS     Force            0.001105     0.000300     NO 
 Maximum Displacement     0.006269     0.001800     NO 
 RMS     Displacement     0.002877     0.001200     NO 
 Predicted change in Energy=-5.442478D-05
 GradGradGradGradGradGradGradGradGradGradGradGradGradGradGradGradGradGrad

                          Input orientation:                          
 ---------------------------------------------------------------------
 Center     Atomic      Atomic             Coordinates (Angstroms)
 Number     Number       Type             X           Y           Z
 ---------------------------------------------------------------------
      1          6           0       -2.295878    1.241922    0.027906
      2          6           0       -1.036448    1.697397   -0.021954
      3          6           0        0.145314    0.846472    0.008343
      4          6           0        1.404755    1.301911   -0.041556
      5          1           0       -3.147151    1.913873    0.002513
      6          1           0       -2.511173    0.178710    0.095853
      7          1           0       -0.855646    2.769873   -0.089848
      8          1           0       -0.035512   -0.226000    0.076257
      9          1           0        1.620088    2.365112   -0.109525
     10          1           0        2.256001    0.629925   -0.016180
 ---------------------------------------------------------------------
                    Distance matrix (angstroms):
                    1          2          3          4          5
     1  C    0.000000
     2  C    1.340189   0.000000
     3  C    2.473092   1.456555   0.000000
     4  C    3.701771   2.473109   1.340188   0.000000
     5  H    1.084818   2.121916   3.461171   4.593070   0.000000
     6  H    1.086916   2.120165   2.740527   4.076144   1.850397
     7  H    2.103038   1.089726   2.170491   2.695674   2.447910
     8  H    2.695624   2.170478   1.089728   2.103035   3.777141
     9  H    4.076179   2.740565   2.120170   1.086916   4.789858
    10  H    4.593047   3.461178   2.121908   1.084818   5.553641
                    6          7          8          9         10
     6  H    0.000000
     7  H    3.080483   0.000000
     8  H    2.508599   3.110541   0.000000
     9  H    4.678659   2.508680   3.080485   0.000000
    10  H    4.789790   3.777188   2.447893   1.850399   0.000000
 Stoichiometry    C4H6
 Framework group  C1[X(C4H6)]
 Deg. of freedom    24
 Full point group                 C1      NOp   1
 Largest Abelian subgroup         C1      NOp   1
 Largest concise Abelian subgroup C1      NOp   1
                         Standard orientation:                         
 ---------------------------------------------------------------------
 Center     Atomic      Atomic             Coordinates (Angstroms)
 Number     Number       Type             X           Y           Z
 ---------------------------------------------------------------------
      1          6           0        1.847654   -0.109264    0.000009
      2          6           0        0.608229    0.400572   -0.000011
      3          6           0       -0.608223   -0.400551   -0.000011
      4          6           0       -1.847661    0.109251    0.000009
      5          1           0        2.726384    0.526868    0.000019
      6          1           0        2.018320   -1.182698    0.000019
      7          1           0        0.472417    1.481802   -0.000022
      8          1           0       -0.472387   -1.481779   -0.000022
      9          1           0       -2.018367    1.182678    0.000019
     10          1           0       -2.726365   -0.526916    0.000019
 ---------------------------------------------------------------------
 Rotational constants (GHZ):          42.3279648           4.4154623           3.9983704
 Standard basis: 6-31G(d,p) (6D, 7F)
 There are    90 symmetry adapted cartesian basis functions of A   symmetry.
 There are    90 symmetry adapted basis functions of A   symmetry.
    90 basis functions,   154 primitive gaussians,    90 cartesian basis functions
    15 alpha electrons       15 beta electrons
       nuclear repulsion energy       103.6143052089 Hartrees.
 NAtoms=   10 NActive=   10 NUniq=   10 SFac= 1.00D+00 NAtFMM=   60 NAOKFM=F Big=F
 Integral buffers will be    131072 words long.
 Raffenetti 2 integral format.
 Two-electron integral symmetry is turned on.
 One-electron integrals computed using PRISM.
 NBasis=    90 RedAO= T EigKep=  3.42D-03  NBF=    90
 NBsUse=    90 1.00D-06 EigRej= -1.00D+00 NBFU=    90
 Initial guess from the checkpoint file:  "checkpoint.chk"
 B after Tr=     0.000000    0.000000   -0.000000
         Rot=    1.000000    0.000000   -0.000000   -0.000284 Ang=  -0.03 deg.
 Keep R1 ints in memory in canonical form, NReq=9301743.
 Requested convergence on RMS density matrix=1.00D-08 within 128 cycles.
 Requested convergence on MAX density matrix=1.00D-06.
 Requested convergence on             energy=1.00D-06.
 No special actions if energy rises.
 SCF Done:  E(RB3LYP) =  -156.001661084     A.U. after    7 cycles
            NFock=  7  Conv=0.98D-08     -V/T= 2.0102
 Calling FoFJK, ICntrl=      2127 FMM=F ISym2X=0 I1Cent= 0 IOpClX= 0 NMat=1 NMatS=1 NMatT=0.
 ***** Axes restored to original set *****
 -------------------------------------------------------------------
 Center     Atomic                   Forces (Hartrees/Bohr)
 Number     Number              X              Y              Z
 -------------------------------------------------------------------
      1        6           0.000438914    0.000323977   -0.000027258
      2        6          -0.000349281    0.000000803    0.000006054
      3        6           0.000348327   -0.000002311   -0.000006172
      4        6          -0.000438982   -0.000323884    0.000027437
      5        1          -0.000157616   -0.000094638    0.000008733
      6        1          -0.000189904   -0.000054609    0.000006642
      7        1          -0.000157456    0.000148534   -0.000006327
      8        1           0.000158334   -0.000148070    0.000005944
      9        1           0.000189632    0.000054855   -0.000006713
     10        1           0.000158032    0.000095343   -0.000008341
 -------------------------------------------------------------------
 Cartesian Forces:  Max     0.000438982 RMS     0.000189750

 GradGradGradGradGradGradGradGradGradGradGradGradGradGradGradGradGradGrad
 Berny optimization.
 Using GEDIIS/GDIIS optimizer.
 FormGI is forming the generalized inverse of G from B-inverse, IUseBI=4.
 Internal  Forces:  Max     0.000526647 RMS     0.000147141
 Search for a local minimum.
 Step number   3 out of a maximum of   43
 All quantities printed in internal units (Hartrees-Bohrs-Radians)
 Mixed Optimization -- En-DIIS/RFO-DIIS
 Update second derivatives using D2CorX and points    1    2    3
 DE= -5.58D-05 DEPred=-5.44D-05 R= 1.02D+00
 TightC=F SS=  1.41D+00  RLast= 2.01D-02 DXNew= 6.5674D-01 6.0239D-02
 Trust test= 1.02D+00 RLast= 2.01D-02 DXMaxT set to 3.90D-01
 ITU=  1  1  0
 Use linear search instead of GDIIS.
     Eigenvalues ---    0.01073   0.02040   0.02040   0.02949   0.02949
     Eigenvalues ---    0.02949   0.02949   0.13724   0.16000   0.16000
     Eigenvalues ---    0.16000   0.16010   0.16608   0.20828   0.22000
     Eigenvalues ---    0.34848   0.35189   0.35251   0.35270   0.35371
     Eigenvalues ---    0.35380   0.37164   0.58353   0.62238
 RFO step:  Lambda=-3.14160528D-06 EMin= 1.07264371D-02
 Quartic linear search produced a step of  0.02317.
 Iteration  1 RMS(Cart)=  0.00121996 RMS(Int)=  0.00000048
 Iteration  2 RMS(Cart)=  0.00000052 RMS(Int)=  0.00000000
 Variable       Old X    -DE/DX   Delta X   Delta X   Delta X     New X
                                 (Linear)    (Quad)   (Total)
    R1        2.53259  -0.00015  -0.00013  -0.00024  -0.00037   2.53222
    R2        2.05001   0.00006  -0.00003   0.00019   0.00015   2.05016
    R3        2.05397   0.00009   0.00005   0.00027   0.00031   2.05429
    R4        2.75249   0.00053  -0.00022   0.00147   0.00126   2.75375
    R5        2.05928   0.00012   0.00010   0.00036   0.00045   2.05974
    R6        2.53259  -0.00015  -0.00013  -0.00024  -0.00037   2.53222
    R7        2.05929   0.00012   0.00010   0.00036   0.00045   2.05974
    R8        2.05397   0.00009   0.00005   0.00027   0.00031   2.05429
    R9        2.05001   0.00006  -0.00003   0.00019   0.00015   2.05016
    A1        2.12474   0.00012   0.00009   0.00079   0.00087   2.12561
    A2        2.11872   0.00012   0.00006   0.00079   0.00084   2.11956
    A3        2.03973  -0.00024  -0.00014  -0.00157  -0.00172   2.03801
    A4        2.16896   0.00011   0.00012   0.00059   0.00071   2.16967
    A5        2.08600  -0.00024  -0.00001  -0.00141  -0.00143   2.08458
    A6        2.02822   0.00013  -0.00010   0.00082   0.00072   2.02894
    A7        2.16899   0.00010   0.00012   0.00057   0.00069   2.16968
    A8        2.02820   0.00013  -0.00010   0.00084   0.00073   2.02893
    A9        2.08600  -0.00024  -0.00001  -0.00141  -0.00142   2.08458
   A10        2.11873   0.00012   0.00006   0.00078   0.00084   2.11957
   A11        2.12473   0.00012   0.00009   0.00080   0.00088   2.12561
   A12        2.03973  -0.00024  -0.00014  -0.00158  -0.00172   2.03801
    D1       -3.14158  -0.00000   0.00000  -0.00001  -0.00001  -3.14159
    D2        0.00000  -0.00000  -0.00000  -0.00000  -0.00000   0.00000
    D3        0.00001  -0.00000  -0.00000  -0.00000  -0.00001   0.00000
    D4        3.14159   0.00000  -0.00000   0.00000   0.00000  -3.14159
    D5        3.14156   0.00000   0.00000   0.00003   0.00003   3.14159
    D6       -0.00003   0.00000   0.00000   0.00002   0.00002  -0.00001
    D7       -0.00003   0.00000   0.00000   0.00002   0.00002  -0.00001
    D8        3.14157   0.00000   0.00000   0.00001   0.00001   3.14159
    D9        0.00001  -0.00000  -0.00000  -0.00000  -0.00001   0.00000
   D10       -3.14158  -0.00000   0.00000  -0.00001  -0.00001  -3.14159
   D11        3.14159   0.00000  -0.00000   0.00000   0.00000  -3.14159
   D12        0.00000  -0.00000  -0.00000  -0.00000  -0.00000   0.00000
         Item               Value     Threshold  Converged?
 Maximum Force            0.000527     0.000450     NO 
 RMS     Force            0.000147     0.000300     YES
 Maximum Displacement     0.003123     0.001800     NO 
 RMS     Displacement     0.001220     0.001200     NO 
 Predicted change in Energy=-1.600493D-06
 GradGradGradGradGradGradGradGradGradGradGradGradGradGradGradGradGradGrad

                          Input orientation:                          
 ---------------------------------------------------------------------
 Center     Atomic      Atomic             Coordinates (Angstroms)
 Number     Number       Type             X           Y           Z
 ---------------------------------------------------------------------
      1          6           0       -2.296271    1.242284    0.027895
      2          6           0       -1.036896    1.697333   -0.021955
      3          6           0        0.145764    0.846516    0.008320
      4          6           0        1.405143    1.301553   -0.041537
      5          1           0       -3.148002    1.913787    0.002547
      6          1           0       -2.512800    0.179155    0.095870
      7          1           0       -0.857280    2.770251   -0.089861
      8          1           0       -0.033860   -0.226402    0.076232
      9          1           0        1.621684    2.364679   -0.109513
     10          1           0        2.256866    0.630040   -0.016189
 ---------------------------------------------------------------------
                    Distance matrix (angstroms):
                    1          2          3          4          5
     1  C    0.000000
     2  C    1.339992   0.000000
     3  C    2.473975   1.457221   0.000000
     4  C    3.702539   2.473980   1.339992   0.000000
     5  H    1.084899   2.122315   3.462369   4.594333   0.000000
     6  H    1.087082   2.120622   2.742445   4.077859   1.849631
     7  H    2.102200   1.089967   2.171749   2.697770   2.447341
     8  H    2.697754   2.171745   1.089967   2.102199   3.779381
     9  H    4.077870   2.742456   2.120623   1.087082   4.792262
    10  H    4.594326   3.462371   2.122313   1.084899   5.555263
                    6          7          8          9         10
     6  H    0.000000
     7  H    3.080426   0.000000
     8  H    2.511973   3.112160   0.000000
     9  H    4.681096   2.511999   3.080426   0.000000
    10  H    4.792240   3.779396   2.447336   1.849632   0.000000
 Stoichiometry    C4H6
 Framework group  C1[X(C4H6)]
 Deg. of freedom    24
 Full point group                 C1      NOp   1
 Largest Abelian subgroup         C1      NOp   1
 Largest concise Abelian subgroup C1      NOp   1
                         Standard orientation:                         
 ---------------------------------------------------------------------
 Center     Atomic      Atomic             Coordinates (Angstroms)
 Number     Number       Type             X           Y           Z
 ---------------------------------------------------------------------
      1          6           0        1.848040   -0.109282    0.000002
      2          6           0        0.608753    0.400371   -0.000002
      3          6           0       -0.608751   -0.400364   -0.000002
      4          6           0       -1.848042    0.109278    0.000002
      5          1           0        2.727334    0.526207    0.000002
      6          1           0        2.019731   -1.182721    0.000003
      7          1           0        0.474358    1.482020   -0.000005
      8          1           0       -0.474348   -1.482013   -0.000005
      9          1           0       -2.019746    1.182714    0.000003
     10          1           0       -2.727328   -0.526222    0.000002
 ---------------------------------------------------------------------
 Rotational constants (GHZ):          42.3405603           4.4125726           3.9961128
 Standard basis: 6-31G(d,p) (6D, 7F)
 There are    90 symmetry adapted cartesian basis functions of A   symmetry.
 There are    90 symmetry adapted basis functions of A   symmetry.
    90 basis functions,   154 primitive gaussians,    90 cartesian basis functions
    15 alpha electrons       15 beta electrons
       nuclear repulsion energy       103.5958634829 Hartrees.
 NAtoms=   10 NActive=   10 NUniq=   10 SFac= 1.00D+00 NAtFMM=   60 NAOKFM=F Big=F
 Integral buffers will be    131072 words long.
 Raffenetti 2 integral format.
 Two-electron integral symmetry is turned on.
 One-electron integrals computed using PRISM.
 NBasis=    90 RedAO= T EigKep=  3.43D-03  NBF=    90
 NBsUse=    90 1.00D-06 EigRej= -1.00D+00 NBFU=    90
 Initial guess from the checkpoint file:  "checkpoint.chk"
 B after Tr=    -0.000000    0.000000   -0.000000
         Rot=    1.000000    0.000000   -0.000000    0.000070 Ang=   0.01 deg.
 Keep R1 ints in memory in canonical form, NReq=9301743.
 Requested convergence on RMS density matrix=1.00D-08 within 128 cycles.
 Requested convergence on MAX density matrix=1.00D-06.
 Requested convergence on             energy=1.00D-06.
 No special actions if energy rises.
 SCF Done:  E(RB3LYP) =  -156.001662845     A.U. after    7 cycles
            NFock=  7  Conv=0.24D-08     -V/T= 2.0102
 Calling FoFJK, ICntrl=      2127 FMM=F ISym2X=0 I1Cent= 0 IOpClX= 0 NMat=1 NMatS=1 NMatT=0.
 ***** Axes restored to original set *****
 -------------------------------------------------------------------
 Center     Atomic                   Forces (Hartrees/Bohr)
 Number     Number              X              Y              Z
 -------------------------------------------------------------------
      1        6           0.000106312   -0.000024164   -0.000000301
      2        6           0.000040510    0.000104097   -0.000006939
      3        6          -0.000041034   -0.000104671    0.000007105
      4        6          -0.000106228    0.000024336    0.000000555
      5        1          -0.000034357   -0.000010509    0.000001259
      6        1          -0.000058198    0.000004714    0.000000666
      7        1          -0.000027299   -0.000031324    0.000002253
      8        1           0.000027592    0.000031456   -0.000002511
      9        1           0.000058149   -0.000004576   -0.000000844
     10        1           0.000034553    0.000010642   -0.000001243
 -------------------------------------------------------------------
 Cartesian Forces:  Max     0.000106312 RMS     0.000045417

 GradGradGradGradGradGradGradGradGradGradGradGradGradGradGradGradGradGrad
 Berny optimization.
 Using GEDIIS/GDIIS optimizer.
 FormGI is forming the generalized inverse of G from B-inverse, IUseBI=4.
 Internal  Forces:  Max     0.000059989 RMS     0.000026228
 Search for a local minimum.
 Step number   4 out of a maximum of   43
 All quantities printed in internal units (Hartrees-Bohrs-Radians)
 Mixed Optimization -- En-DIIS/RFO-DIIS
 Swapping is turned off.
 Update second derivatives using D2CorX and points    1    2    3    4
 DE= -1.76D-06 DEPred=-1.60D-06 R= 1.10D+00
 TightC=F SS=  1.41D+00  RLast= 4.18D-03 DXNew= 6.5674D-01 1.2530D-02
 Trust test= 1.10D+00 RLast= 4.18D-03 DXMaxT set to 3.90D-01
 ITU=  1  1  1  0
     Eigenvalues ---    0.01073   0.02039   0.02039   0.02949   0.02949
     Eigenvalues ---    0.02949   0.02949   0.11581   0.15835   0.16000
     Eigenvalues ---    0.16000   0.16000   0.16470   0.21566   0.22000
     Eigenvalues ---    0.35078   0.35189   0.35213   0.35270   0.35371
     Eigenvalues ---    0.35673   0.38226   0.58353   0.63307
 En-DIIS/RFO-DIIS/Sim-DIIS IScMMF=       -3 using points:     4    3
 RFO step:  Lambda=-1.48427114D-07.
 DidBck=F Rises=F RFO-DIIS coefs:    1.17783   -0.17783
 Iteration  1 RMS(Cart)=  0.00019870 RMS(Int)=  0.00000004
 Iteration  2 RMS(Cart)=  0.00000004 RMS(Int)=  0.00000000
 Variable       Old X    -DE/DX   Delta X   Delta X   Delta X     New X
                                 (Linear)    (Quad)   (Total)
    R1        2.53222  -0.00000  -0.00007   0.00004  -0.00003   2.53219
    R2        2.05016   0.00002   0.00003   0.00004   0.00007   2.05023
    R3        2.05429   0.00001   0.00006  -0.00002   0.00004   2.05433
    R4        2.75375   0.00000   0.00022  -0.00020   0.00002   2.75377
    R5        2.05974  -0.00004   0.00008  -0.00017  -0.00009   2.05965
    R6        2.53222  -0.00000  -0.00007   0.00004  -0.00003   2.53219
    R7        2.05974  -0.00004   0.00008  -0.00017  -0.00009   2.05965
    R8        2.05429   0.00001   0.00006  -0.00002   0.00004   2.05433
    R9        2.05016   0.00002   0.00003   0.00004   0.00007   2.05023
    A1        2.12561   0.00000   0.00016  -0.00010   0.00005   2.12566
    A2        2.11956   0.00006   0.00015   0.00030   0.00045   2.12001
    A3        2.03801  -0.00006  -0.00031  -0.00019  -0.00050   2.03751
    A4        2.16967  -0.00003   0.00013  -0.00023  -0.00011   2.16956
    A5        2.08458  -0.00001  -0.00025   0.00013  -0.00012   2.08445
    A6        2.02894   0.00004   0.00013   0.00010   0.00023   2.02917
    A7        2.16968  -0.00003   0.00012  -0.00024  -0.00011   2.16956
    A8        2.02893   0.00004   0.00013   0.00011   0.00024   2.02917
    A9        2.08458  -0.00001  -0.00025   0.00013  -0.00012   2.08445
   A10        2.11957   0.00006   0.00015   0.00030   0.00044   2.12001
   A11        2.12561   0.00000   0.00016  -0.00010   0.00005   2.12566
   A12        2.03801  -0.00006  -0.00031  -0.00019  -0.00050   2.03751
    D1       -3.14159  -0.00000  -0.00000   0.00000  -0.00000  -3.14159
    D2        0.00000  -0.00000  -0.00000  -0.00000  -0.00000   0.00000
    D3        0.00000  -0.00000  -0.00000  -0.00000  -0.00000  -0.00000
    D4       -3.14159  -0.00000   0.00000  -0.00000  -0.00000   3.14159
    D5        3.14159   0.00000   0.00001  -0.00000   0.00001   3.14159
    D6       -0.00001   0.00000   0.00000   0.00000   0.00001  -0.00000
    D7       -0.00001   0.00000   0.00000   0.00000   0.00001  -0.00000
    D8        3.14159   0.00000   0.00000   0.00000   0.00001  -3.14159
    D9        0.00000  -0.00000  -0.00000  -0.00000  -0.00000  -0.00000
   D10       -3.14159  -0.00000  -0.00000   0.00000  -0.00000  -3.14159
   D11       -3.14159  -0.00000   0.00000  -0.00000  -0.00000   3.14159
   D12        0.00000  -0.00000  -0.00000  -0.00000  -0.00000   0.00000
         Item               Value     Threshold  Converged?
 Maximum Force            0.000060     0.000450     YES
 RMS     Force            0.000026     0.000300     YES
 Maximum Displacement     0.000706     0.001800     YES
 RMS     Displacement     0.000199     0.001200     YES
 Predicted change in Energy=-7.421362D-08
 Optimization completed.
    -- Stationary point found.
                           ----------------------------
                           !   Optimized Parameters   !
                           ! (Angstroms and Degrees)  !
 --------------------------                            --------------------------
 ! Name  Definition              Value          Derivative Info.                !
 --------------------------------------------------------------------------------
 ! R1    R(1,2)                  1.34           -DE/DX =    0.0                 !
 ! R2    R(1,5)                  1.0849         -DE/DX =    0.0                 !
 ! R3    R(1,6)                  1.0871         -DE/DX =    0.0                 !
 ! R4    R(2,3)                  1.4572         -DE/DX =    0.0                 !
 ! R5    R(2,7)                  1.09           -DE/DX =    0.0                 !
 ! R6    R(3,4)                  1.34           -DE/DX =    0.0                 !
 ! R7    R(3,8)                  1.09           -DE/DX =    0.0                 !
 ! R8    R(4,9)                  1.0871         -DE/DX =    0.0                 !
 ! R9    R(4,10)                 1.0849         -DE/DX =    0.0                 !
 ! A1    A(2,1,5)              121.7886         -DE/DX =    0.0                 !
 ! A2    A(2,1,6)              121.442          -DE/DX =    0.0001              !
 ! A3    A(5,1,6)              116.7694         -DE/DX =   -0.0001              !
 ! A4    A(1,2,3)              124.3129         -DE/DX =    0.0                 !
 ! A5    A(1,2,7)              119.4375         -DE/DX =    0.0                 !
 ! A6    A(3,2,7)              116.2497         -DE/DX =    0.0                 !
 ! A7    A(2,3,4)              124.3134         -DE/DX =    0.0                 !
 ! A8    A(2,3,8)              116.2492         -DE/DX =    0.0                 !
 ! A9    A(4,3,8)              119.4374         -DE/DX =    0.0                 !
 ! A10   A(3,4,9)              121.4421         -DE/DX =    0.0001              !
 ! A11   A(3,4,10)             121.7884         -DE/DX =    0.0                 !
 ! A12   A(9,4,10)             116.7695         -DE/DX =   -0.0001              !
 ! D1    D(5,1,2,3)           -179.9999         -DE/DX =    0.0                 !
 ! D2    D(5,1,2,7)              0.0001         -DE/DX =    0.0                 !
 ! D3    D(6,1,2,3)              0.0001         -DE/DX =    0.0                 !
 ! D4    D(6,1,2,7)            180.0001         -DE/DX =    0.0                 !
 ! D5    D(1,2,3,4)            179.9996         -DE/DX =    0.0                 !
 ! D6    D(1,2,3,8)             -0.0004         -DE/DX =    0.0                 !
 ! D7    D(7,2,3,4)             -0.0004         -DE/DX =    0.0                 !
 ! D8    D(7,2,3,8)           -180.0004         -DE/DX =    0.0                 !
 ! D9    D(2,3,4,9)              0.0001         -DE/DX =    0.0                 !
 ! D10   D(2,3,4,10)          -179.9999         -DE/DX =    0.0                 !
 ! D11   D(8,3,4,9)            180.0001         -DE/DX =    0.0                 !
 ! D12   D(8,3,4,10)             0.0001         -DE/DX =    0.0                 !
 --------------------------------------------------------------------------------
 GradGradGradGradGradGradGradGradGradGradGradGradGradGradGradGradGradGrad

                          Input orientation:                          
 ---------------------------------------------------------------------
 Center     Atomic      Atomic             Coordinates (Angstroms)
 Number     Number       Type             X           Y           Z
 ---------------------------------------------------------------------
      1          6           0       -2.296271    1.242284    0.027895
      2          6           0       -1.036896    1.697333   -0.021955
      3          6           0        0.145764    0.846516    0.008320
      4          6           0        1.405143    1.301553   -0.041537
      5          1           0       -3.148002    1.913787    0.002547
      6          1           0       -2.512800    0.179155    0.095870
      7          1           0       -0.857280    2.770251   -0.089861
      8          1           0       -0.033860   -0.226402    0.076232
      9          1           0        1.621684    2.364679   -0.109513
     10          1           0        2.256866    0.630040   -0.016189
 ---------------------------------------------------------------------
                    Distance matrix (angstroms):
                    1          2          3          4          5
     1  C    0.000000
     2  C    1.339992   0.000000
     3  C    2.473975   1.457221   0.000000
     4  C    3.702539   2.473980   1.339992   0.000000
     5  H    1.084899   2.122315   3.462369   4.594333   0.000000
     6  H    1.087082   2.120622   2.742445   4.077859   1.849631
     7  H    2.102200   1.089967   2.171749   2.697770   2.447341
     8  H    2.697754   2.171745   1.089967   2.102199   3.779381
     9  H    4.077870   2.742456   2.120623   1.087082   4.792262
    10  H    4.594326   3.462371   2.122313   1.084899   5.555263
                    6          7          8          9         10
     6  H    0.000000
     7  H    3.080426   0.000000
     8  H    2.511973   3.112160   0.000000
     9  H    4.681096   2.511999   3.080426   0.000000
    10  H    4.792240   3.779396   2.447336   1.849632   0.000000
 Stoichiometry    C4H6
 Framework group  C1[X(C4H6)]
 Deg. of freedom    24
 Full point group                 C1      NOp   1
 Largest Abelian subgroup         C1      NOp   1
 Largest concise Abelian subgroup C1      NOp   1
                         Standard orientation:                         
 ---------------------------------------------------------------------
 Center     Atomic      Atomic             Coordinates (Angstroms)
 Number     Number       Type             X           Y           Z
 ---------------------------------------------------------------------
      1          6           0        1.848040   -0.109282    0.000002
      2          6           0        0.608753    0.400371   -0.000002
      3          6           0       -0.608751   -0.400364   -0.000002
      4          6           0       -1.848042    0.109278    0.000002
      5          1           0        2.727334    0.526207    0.000002
      6          1           0        2.019731   -1.182721    0.000003
      7          1           0        0.474358    1.482020   -0.000005
      8          1           0       -0.474348   -1.482013   -0.000005
      9          1           0       -2.019746    1.182714    0.000003
     10          1           0       -2.727328   -0.526222    0.000002
 ---------------------------------------------------------------------
 Rotational constants (GHZ):          42.3405603           4.4125726           3.9961128

 **********************************************************************

            Population analysis using the SCF Density.

 **********************************************************************

 Orbital symmetries:
       Occupied  (A) (A) (A) (A) (A) (A) (A) (A) (A) (A) (A) (A)
                 (A) (A) (A)
       Virtual   (A) (A) (A) (A) (A) (A) (A) (A) (A) (A) (A) (A)
                 (A) (A) (A) (A) (A) (A) (A) (A) (A) (A) (A) (A)
                 (A) (A) (A) (A) (A) (A) (A) (A) (A) (A) (A) (A)
                 (A) (A) (A) (A) (A) (A) (A) (A) (A) (A) (A) (A)
                 (A) (A) (A) (A) (A) (A) (A) (A) (A) (A) (A) (A)
                 (A) (A) (A) (A) (A) (A) (A) (A) (A) (A) (A) (A)
                 (A) (A) (A)
 The electronic state is 1-A.
 Alpha  occ. eigenvalues --  -10.19258 -10.19223 -10.18385 -10.18385  -0.80173
 Alpha  occ. eigenvalues --   -0.72989  -0.60265  -0.54952  -0.46326  -0.45857
 Alpha  occ. eigenvalues --   -0.39086  -0.38370  -0.34326  -0.32041  -0.22969
 Alpha virt. eigenvalues --   -0.02355   0.08398   0.11590   0.12566   0.13083
 Alpha virt. eigenvalues --    0.17543   0.19243   0.21223   0.32366   0.33568
 Alpha virt. eigenvalues --    0.39627   0.47034   0.51026   0.53001   0.57780
 Alpha virt. eigenvalues --    0.60539   0.62455   0.66161   0.67104   0.67146
 Alpha virt. eigenvalues --    0.69248   0.82116   0.83654   0.84308   0.86705
 Alpha virt. eigenvalues --    0.92186   0.93140   0.95594   1.05487   1.10248
 Alpha virt. eigenvalues --    1.12024   1.31229   1.31323   1.35115   1.35363
 Alpha virt. eigenvalues --    1.41423   1.45891   1.52315   1.78091   1.83671
 Alpha virt. eigenvalues --    1.86201   1.94505   1.95241   1.96976   1.98043
 Alpha virt. eigenvalues --    2.06778   2.10379   2.14862   2.19988   2.26379
 Alpha virt. eigenvalues --    2.29520   2.40757   2.41502   2.44988   2.52251
 Alpha virt. eigenvalues --    2.54871   2.56032   2.67226   2.67371   2.68095
 Alpha virt. eigenvalues --    2.69615   2.74621   2.86823   2.95906   3.03632
 Alpha virt. eigenvalues --    3.23173   3.29513   3.38948   3.45473   3.69774
 Alpha virt. eigenvalues --    3.70968   4.13766   4.21392   4.37588   4.64426
          Condensed to atoms (all electrons):
               1          2          3          4          5          6
     1  C    4.958742   0.629170  -0.033852   0.004100   0.371091   0.381058
     2  C    0.629170   4.711376   0.456535  -0.033852  -0.018822  -0.036024
     3  C   -0.033852   0.456535   4.711375   0.629170   0.003960  -0.011476
     4  C    0.004100  -0.033852   0.629170   4.958743  -0.000237   0.000312
     5  H    0.371091  -0.018822   0.003960  -0.000237   0.594127  -0.044074
     6  H    0.381058  -0.036024  -0.011476   0.000312  -0.044074   0.600917
     7  H   -0.050249   0.378535  -0.050663  -0.007362  -0.007824   0.005949
     8  H   -0.007362  -0.050663   0.378535  -0.050249   0.000008   0.005629
     9  H    0.000312  -0.011476  -0.036023   0.381058  -0.000004   0.000012
    10  H   -0.000237   0.003961  -0.018822   0.371091   0.000003  -0.000004
               7          8          9         10
     1  C   -0.050249  -0.007362   0.000312  -0.000237
     2  C    0.378535  -0.050663  -0.011476   0.003961
     3  C   -0.050663   0.378535  -0.036023  -0.018822
     4  C   -0.007362  -0.050249   0.381058   0.371091
     5  H   -0.007824   0.000008  -0.000004   0.000003
     6  H    0.005949   0.005629   0.000012  -0.000004
     7  H    0.638271   0.005660   0.005629   0.000008
     8  H    0.005660   0.638271   0.005949  -0.007824
     9  H    0.005629   0.005949   0.600917  -0.044074
    10  H    0.000008  -0.007824  -0.044074   0.594127
 Mulliken charges:
               1
     1  C   -0.252775
     2  C   -0.028741
     3  C   -0.028741
     4  C   -0.252775
     5  H    0.101771
     6  H    0.097700
     7  H    0.082046
     8  H    0.082045
     9  H    0.097700
    10  H    0.101771
 Sum of Mulliken charges =  -0.00000
 Mulliken charges with hydrogens summed into heavy atoms:
               1
     1  C   -0.053304
     2  C    0.053305
     3  C    0.053304
     4  C   -0.053305
 Electronic spatial extent (au):  <R**2>=            335.7200
 Charge=             -0.0000 electrons
 Dipole moment (field-independent basis, Debye):
    X=              0.0000    Y=              0.0000    Z=             -0.0000  Tot=              0.0000
 Quadrupole moment (field-independent basis, Debye-Ang):
   XX=            -22.8843   YY=            -22.6667   ZZ=            -27.8648
   XY=             -0.0072   XZ=              0.0000   YZ=              0.0000
 Traceless Quadrupole moment (field-independent basis, Debye-Ang):
   XX=              1.5876   YY=              1.8052   ZZ=             -3.3928
   XY=             -0.0072   XZ=              0.0000   YZ=              0.0000
 Octapole moment (field-independent basis, Debye-Ang**2):
  XXX=              0.0001  YYY=              0.0000  ZZZ=             -0.0000  XYY=             -0.0000
  XXY=              0.0000  XXZ=              0.0000  XZZ=              0.0000  YZZ=              0.0000
  YYZ=             -0.0000  XYZ=             -0.0000
 Hexadecapole moment (field-independent basis, Debye-Ang**3):
 XXXX=           -338.8765 YYYY=            -64.0872 ZZZZ=            -28.8457 XXXY=              5.6822
 XXXZ=              0.0000 YYYX=             -1.5589 YYYZ=              0.0000 ZZZX=              0.0000
 ZZZY=              0.0000 XXYY=            -66.8734 XXZZ=            -72.4823 YYZZ=            -17.2287
 XXYZ=              0.0000 YYXZ=              0.0000 ZZXY=             -0.1489
 N-N= 1.035958634829D+02 E-N=-5.676604449347D+02  KE= 1.544210032325D+02
 1\1\GINC-DESKTOP-PRN5QE3\FOpt\RB3LYP\6-31G(d,p)\C4H6\SHOHEI\09-Nov-202
 3\0\\# B3LYP/6-31G(d,p) OPT FREQ\\2poly\\0,1\C,-2.2962705482,1.2422838
 071,0.0278952529\C,-1.0368959073,1.6973327423,-0.0219548858\C,0.145764
 4601,0.846515776,0.0083197865\C,1.4051425367,1.3015531941,-0.041536822
 3\H,-3.1480020447,1.9137865738,0.0025471936\H,-2.5128003848,0.17915521
 72,0.0958695963\H,-0.8572796786,2.7702514503,-0.0898605882\H,-0.033859
 5044,-0.2264016412,0.0762321696\H,1.6216844196,2.364678986,-0.10951312
 78\H,2.2568656516,0.6300398943,-0.016189375\\Version=EM64L-G16RevB.01\
 State=1-A\HF=-156.0016628\RMSD=2.389e-09\RMSF=4.542e-05\Dipole=-0.0000
 03,0.0000007,0.000001\Quadrupole=1.17993,1.3273607,-2.5072907,0.008165
 4,-0.0663676,-0.2323492\PG=C01 [X(C4H6)]\\@


 ERWIN WITH HIS PSI CAN DO
 CALCULATIONS QUITE A FEW.
 BUT ONE THING HAS NOT BEEN SEEN
 JUST WHAT DOES PSI REALLY MEAN.
 -- WALTER HUCKEL, TRANS. BY FELIX BLOCH
 Job cpu time:       0 days  0 hours  1 minutes 14.5 seconds.
 Elapsed time:       0 days  0 hours  1 minutes 14.4 seconds.
 File lengths (MBytes):  RWF=     10 Int=      0 D2E=      0 Chk=     21 Scr=      1
 Normal termination of Gaussian 16 at Thu Nov  9 19:19:06 2023.
 Link1:  Proceeding to internal job step number  2.
 ----------------------------------------------------------------------
 #N Geom=AllCheck Guess=TCheck SCRF=Check GenChk RB3LYP/6-31G(d,p) Freq
 ----------------------------------------------------------------------
 1/10=4,29=7,30=1,38=1,40=1/1,3;
 2/12=2,40=1/2;
 3/5=1,6=6,7=101,11=2,14=-4,25=1,30=1,70=2,71=2,74=-5,116=1,140=1/1,2,3;
 4/5=101/1;
 5/5=2,38=6,98=1/2;
 8/6=4,10=90,11=11/1;
 11/6=1,8=1,9=11,15=111,16=1/1,2,10;
 10/6=1/2;
 6/7=2,8=2,9=2,10=2,28=1/1;
 7/8=1,10=1,25=1/1,2,3,16;
 1/10=4,30=1/3;
 99//99;
 Structure from the checkpoint file:  "checkpoint.chk"
 -----
 2poly
 -----
 Charge =  0 Multiplicity = 1
 Redundant internal coordinates found in file.  (old form).
 C,0,-2.2962705482,1.2422838071,0.0278952529
 C,0,-1.0368959073,1.6973327423,-0.0219548858
 C,0,0.1457644601,0.846515776,0.0083197865
 C,0,1.4051425367,1.3015531941,-0.0415368223
 H,0,-3.1480020447,1.9137865738,0.0025471936
 H,0,-2.5128003848,0.1791552172,0.0958695963
 H,0,-0.8572796786,2.7702514503,-0.0898605882
 H,0,-0.0338595044,-0.2264016412,0.0762321696
 H,0,1.6216844196,2.364678986,-0.1095131278
 H,0,2.2568656516,0.6300398943,-0.016189375
 Recover connectivity data from disk.

 GradGradGradGradGradGradGradGradGradGradGradGradGradGradGradGradGradGrad
 Berny optimization.
 Initialization pass.
                           ----------------------------
                           !    Initial Parameters    !
                           ! (Angstroms and Degrees)  !
 --------------------------                            --------------------------
 ! Name  Definition              Value          Derivative Info.                !
 --------------------------------------------------------------------------------
 ! R1    R(1,2)                  1.34           calculate D2E/DX2 analytically  !
 ! R2    R(1,5)                  1.0849         calculate D2E/DX2 analytically  !
 ! R3    R(1,6)                  1.0871         calculate D2E/DX2 analytically  !
 ! R4    R(2,3)                  1.4572         calculate D2E/DX2 analytically  !
 ! R5    R(2,7)                  1.09           calculate D2E/DX2 analytically  !
 ! R6    R(3,4)                  1.34           calculate D2E/DX2 analytically  !
 ! R7    R(3,8)                  1.09           calculate D2E/DX2 analytically  !
 ! R8    R(4,9)                  1.0871         calculate D2E/DX2 analytically  !
 ! R9    R(4,10)                 1.0849         calculate D2E/DX2 analytically  !
 ! A1    A(2,1,5)              121.7886         calculate D2E/DX2 analytically  !
 ! A2    A(2,1,6)              121.442          calculate D2E/DX2 analytically  !
 ! A3    A(5,1,6)              116.7694         calculate D2E/DX2 analytically  !
 ! A4    A(1,2,3)              124.3129         calculate D2E/DX2 analytically  !
 ! A5    A(1,2,7)              119.4375         calculate D2E/DX2 analytically  !
 ! A6    A(3,2,7)              116.2497         calculate D2E/DX2 analytically  !
 ! A7    A(2,3,4)              124.3134         calculate D2E/DX2 analytically  !
 ! A8    A(2,3,8)              116.2492         calculate D2E/DX2 analytically  !
 ! A9    A(4,3,8)              119.4374         calculate D2E/DX2 analytically  !
 ! A10   A(3,4,9)              121.4421         calculate D2E/DX2 analytically  !
 ! A11   A(3,4,10)             121.7884         calculate D2E/DX2 analytically  !
 ! A12   A(9,4,10)             116.7695         calculate D2E/DX2 analytically  !
 ! D1    D(5,1,2,3)           -179.9999         calculate D2E/DX2 analytically  !
 ! D2    D(5,1,2,7)              0.0001         calculate D2E/DX2 analytically  !
 ! D3    D(6,1,2,3)              0.0001         calculate D2E/DX2 analytically  !
 ! D4    D(6,1,2,7)           -179.9999         calculate D2E/DX2 analytically  !
 ! D5    D(1,2,3,4)            179.9996         calculate D2E/DX2 analytically  !
 ! D6    D(1,2,3,8)             -0.0004         calculate D2E/DX2 analytically  !
 ! D7    D(7,2,3,4)             -0.0004         calculate D2E/DX2 analytically  !
 ! D8    D(7,2,3,8)            179.9996         calculate D2E/DX2 analytically  !
 ! D9    D(2,3,4,9)              0.0001         calculate D2E/DX2 analytically  !
 ! D10   D(2,3,4,10)          -179.9999         calculate D2E/DX2 analytically  !
 ! D11   D(8,3,4,9)           -179.9999         calculate D2E/DX2 analytically  !
 ! D12   D(8,3,4,10)             0.0001         calculate D2E/DX2 analytically  !
 --------------------------------------------------------------------------------
 Trust Radius=3.00D-01 FncErr=1.00D-07 GrdErr=1.00D-07 EigMax=2.50D+02 EigMin=1.00D-04
 Number of steps in this run=      2 maximum allowed number of steps=      2.
 GradGradGradGradGradGradGradGradGradGradGradGradGradGradGradGradGradGrad

                          Input orientation:                          
 ---------------------------------------------------------------------
 Center     Atomic      Atomic             Coordinates (Angstroms)
 Number     Number       Type             X           Y           Z
 ---------------------------------------------------------------------
      1          6           0       -2.296271    1.242284    0.027895
      2          6           0       -1.036896    1.697333   -0.021955
      3          6           0        0.145764    0.846516    0.008320
      4          6           0        1.405143    1.301553   -0.041537
      5          1           0       -3.148002    1.913787    0.002547
      6          1           0       -2.512800    0.179155    0.095870
      7          1           0       -0.857280    2.770251   -0.089861
      8          1           0       -0.033860   -0.226402    0.076232
      9          1           0        1.621684    2.364679   -0.109513
     10          1           0        2.256866    0.630040   -0.016189
 ---------------------------------------------------------------------
                    Distance matrix (angstroms):
                    1          2          3          4          5
     1  C    0.000000
     2  C    1.339992   0.000000
     3  C    2.473975   1.457221   0.000000
     4  C    3.702539   2.473980   1.339992   0.000000
     5  H    1.084899   2.122315   3.462369   4.594333   0.000000
     6  H    1.087082   2.120622   2.742445   4.077859   1.849631
     7  H    2.102200   1.089967   2.171749   2.697770   2.447341
     8  H    2.697754   2.171745   1.089967   2.102199   3.779381
     9  H    4.077870   2.742456   2.120623   1.087082   4.792262
    10  H    4.594326   3.462371   2.122313   1.084899   5.555263
                    6          7          8          9         10
     6  H    0.000000
     7  H    3.080426   0.000000
     8  H    2.511973   3.112160   0.000000
     9  H    4.681096   2.511999   3.080426   0.000000
    10  H    4.792240   3.779396   2.447336   1.849632   0.000000
 Stoichiometry    C4H6
 Framework group  C1[X(C4H6)]
 Deg. of freedom    24
 Full point group                 C1      NOp   1
 Largest Abelian subgroup         C1      NOp   1
 Largest concise Abelian subgroup C1      NOp   1
                         Standard orientation:                         
 ---------------------------------------------------------------------
 Center     Atomic      Atomic             Coordinates (Angstroms)
 Number     Number       Type             X           Y           Z
 ---------------------------------------------------------------------
      1          6           0        1.848040   -0.109282    0.000002
      2          6           0        0.608753    0.400371   -0.000002
      3          6           0       -0.608751   -0.400364   -0.000002
      4          6           0       -1.848042    0.109278    0.000002
      5          1           0        2.727334    0.526207    0.000002
      6          1           0        2.019731   -1.182721    0.000003
      7          1           0        0.474358    1.482020   -0.000005
      8          1           0       -0.474348   -1.482013   -0.000005
      9          1           0       -2.019746    1.182714    0.000003
     10          1           0       -2.727328   -0.526222    0.000002
 ---------------------------------------------------------------------
 Rotational constants (GHZ):          42.3405603           4.4125726           3.9961128
 Standard basis: 6-31G(d,p) (6D, 7F)
 There are    90 symmetry adapted cartesian basis functions of A   symmetry.
 There are    90 symmetry adapted basis functions of A   symmetry.
    90 basis functions,   154 primitive gaussians,    90 cartesian basis functions
    15 alpha electrons       15 beta electrons
       nuclear repulsion energy       103.5958634829 Hartrees.
 NAtoms=   10 NActive=   10 NUniq=   10 SFac= 1.00D+00 NAtFMM=   60 NAOKFM=F Big=F
 Integral buffers will be    131072 words long.
 Raffenetti 2 integral format.
 Two-electron integral symmetry is turned on.
 One-electron integrals computed using PRISM.
 NBasis=    90 RedAO= T EigKep=  3.43D-03  NBF=    90
 NBsUse=    90 1.00D-06 EigRej= -1.00D+00 NBFU=    90
 Initial guess from the checkpoint file:  "checkpoint.chk"
 B after Tr=     0.000000   -0.000000    0.000000
         Rot=    1.000000    0.000000   -0.000000    0.000000 Ang=   0.00 deg.
 Keep R1 ints in memory in canonical form, NReq=9301743.
 Requested convergence on RMS density matrix=1.00D-08 within 128 cycles.
 Requested convergence on MAX density matrix=1.00D-06.
 Requested convergence on             energy=1.00D-06.
 No special actions if energy rises.
 SCF Done:  E(RB3LYP) =  -156.001662845     A.U. after    1 cycles
            NFock=  1  Conv=0.23D-08     -V/T= 2.0102
 DoSCS=F DFT=T ScalE2(SS,OS)=  1.000000  1.000000
 Range of M.O.s used for correlation:     1    90
[...]
 Vib (V=0)    2  0.131591D+01          0.119225          0.274526
 Vib (V=0)    3  0.109027D+01          0.037535          0.086427
 Vib (V=0)    4  0.107964D+01          0.033278          0.076625
 Electronic      0.100000D+01          0.000000          0.000000
 Translational   0.156175D+08          7.193611         16.563901
 Rotational      0.317632D+05          4.501925         10.366065
 ***** Axes restored to original set *****
 -------------------------------------------------------------------
 Center     Atomic                   Forces (Hartrees/Bohr)
 Number     Number              X              Y              Z
 -------------------------------------------------------------------
      1        6           0.000106310   -0.000024152   -0.000000302
      2        6           0.000040557    0.000104117   -0.000006941
      3        6          -0.000041000   -0.000104651    0.000007103
      4        6          -0.000106244    0.000024329    0.000000556
      5        1          -0.000034377   -0.000010499    0.000001259
      6        1          -0.000058207    0.000004685    0.000000668
      7        1          -0.000027307   -0.000031341    0.000002254
      8        1           0.000027589    0.000031449   -0.000002510
      9        1           0.000058144   -0.000004595   -0.000000843
     10        1           0.000034535    0.000010656   -0.000001243
 -------------------------------------------------------------------
 Cartesian Forces:  Max     0.000106310 RMS     0.000045419
 FormGI is forming the generalized inverse of G from B-inverse, IUseBI=4.

 GradGradGradGradGradGradGradGradGradGradGradGradGradGradGradGradGradGrad
 Berny optimization.
 Internal  Forces:  Max     0.000059988 RMS     0.000026229
 Search for a local minimum.
 Step number   1 out of a maximum of    2
 All quantities printed in internal units (Hartrees-Bohrs-Radians)
 Second derivative matrix not updated -- analytic derivatives used.
 ITU=  0
     Eigenvalues ---    0.00783   0.02363   0.02411   0.02958   0.03222
     Eigenvalues ---    0.03868   0.04056   0.10547   0.10729   0.11092
     Eigenvalues ---    0.11274   0.11778   0.13623   0.15570   0.18801
     Eigenvalues ---    0.34666   0.35083   0.35496   0.35981   0.36065
     Eigenvalues ---    0.36476   0.36517   0.61534   0.62537
 Angle between quadratic step and forces=  16.52 degrees.
 Linear search not attempted -- first point.
 Iteration  1 RMS(Cart)=  0.00022016 RMS(Int)=  0.00000005
 Iteration  2 RMS(Cart)=  0.00000005 RMS(Int)=  0.00000001
 Variable       Old X    -DE/DX   Delta X   Delta X   Delta X     New X
                                 (Linear)    (Quad)   (Total)
    R1        2.53222  -0.00000   0.00000  -0.00001  -0.00001   2.53220
    R2        2.05016   0.00002   0.00000   0.00009   0.00009   2.05025
    R3        2.05429   0.00001   0.00000   0.00002   0.00002   2.05431
    R4        2.75375   0.00000   0.00000   0.00001   0.00001   2.75376
    R5        2.05974  -0.00004   0.00000  -0.00012  -0.00012   2.05961
    R6        2.53222  -0.00000   0.00000  -0.00001  -0.00001   2.53220
    R7        2.05974  -0.00004   0.00000  -0.00013  -0.00013   2.05961
    R8        2.05429   0.00001   0.00000   0.00002   0.00002   2.05431
    R9        2.05016   0.00002   0.00000   0.00009   0.00009   2.05025
    A1        2.12561   0.00000   0.00000   0.00005   0.00005   2.12566
    A2        2.11956   0.00006   0.00000   0.00052   0.00052   2.12008
    A3        2.03801  -0.00006   0.00000  -0.00057  -0.00057   2.03744
    A4        2.16967  -0.00003   0.00000  -0.00015  -0.00015   2.16952
    A5        2.08458  -0.00001   0.00000  -0.00011  -0.00011   2.08447
    A6        2.02894   0.00004   0.00000   0.00026   0.00026   2.02920
    A7        2.16968  -0.00003   0.00000  -0.00016  -0.00016   2.16952
    A8        2.02893   0.00004   0.00000   0.00027   0.00027   2.02920
    A9        2.08458  -0.00001   0.00000  -0.00011  -0.00011   2.08447
   A10        2.11957   0.00006   0.00000   0.00052   0.00052   2.12008
   A11        2.12561   0.00000   0.00000   0.00005   0.00005   2.12566
   A12        2.03801  -0.00006   0.00000  -0.00057  -0.00057   2.03744
    D1       -3.14159  -0.00000   0.00000  -0.00000  -0.00000  -3.14159
    D2        0.00000  -0.00000   0.00000  -0.00000  -0.00000   0.00000
    D3        0.00000  -0.00000   0.00000  -0.00000  -0.00000   0.00000
    D4       -3.14159  -0.00000   0.00000  -0.00000  -0.00000   3.14159
    D5        3.14159   0.00000   0.00000   0.00001   0.00001   3.14159
    D6       -0.00001   0.00000   0.00000   0.00001   0.00001  -0.00000
    D7       -0.00001   0.00000   0.00000   0.00001   0.00001   0.00000
    D8        3.14159   0.00000   0.00000   0.00001   0.00001   3.14159
    D9        0.00000  -0.00000   0.00000  -0.00000  -0.00000   0.00000
   D10       -3.14159  -0.00000   0.00000  -0.00000  -0.00000   3.14159
   D11       -3.14159  -0.00000   0.00000  -0.00000  -0.00000   3.14159
   D12        0.00000  -0.00000   0.00000  -0.00000  -0.00000   0.00000
         Item               Value     Threshold  Converged?
 Maximum Force            0.000060     0.000450     YES
 RMS     Force            0.000026     0.000300     YES
 Maximum Displacement     0.000790     0.001800     YES
 RMS     Displacement     0.000220     0.001200     YES
 Predicted change in Energy=-8.735649D-08
 Optimization completed.
    -- Stationary point found.
                           ----------------------------
                           !   Optimized Parameters   !
                           ! (Angstroms and Degrees)  !
 --------------------------                            --------------------------
 ! Name  Definition              Value          Derivative Info.                !
 --------------------------------------------------------------------------------
 ! R1    R(1,2)                  1.34           -DE/DX =    0.0                 !
 ! R2    R(1,5)                  1.0849         -DE/DX =    0.0                 !
 ! R3    R(1,6)                  1.0871         -DE/DX =    0.0                 !
 ! R4    R(2,3)                  1.4572         -DE/DX =    0.0                 !
 ! R5    R(2,7)                  1.09           -DE/DX =    0.0                 !
 ! R6    R(3,4)                  1.34           -DE/DX =    0.0                 !
 ! R7    R(3,8)                  1.09           -DE/DX =    0.0                 !
 ! R8    R(4,9)                  1.0871         -DE/DX =    0.0                 !
 ! R9    R(4,10)                 1.0849         -DE/DX =    0.0                 !
 ! A1    A(2,1,5)              121.7886         -DE/DX =    0.0                 !
 ! A2    A(2,1,6)              121.442          -DE/DX =    0.0001              !
 ! A3    A(5,1,6)              116.7694         -DE/DX =   -0.0001              !
 ! A4    A(1,2,3)              124.3129         -DE/DX =    0.0                 !
 ! A5    A(1,2,7)              119.4375         -DE/DX =    0.0                 !
 ! A6    A(3,2,7)              116.2497         -DE/DX =    0.0                 !
 ! A7    A(2,3,4)              124.3134         -DE/DX =    0.0                 !
 ! A8    A(2,3,8)              116.2492         -DE/DX =    0.0                 !
 ! A9    A(4,3,8)              119.4374         -DE/DX =    0.0                 !
 ! A10   A(3,4,9)              121.4421         -DE/DX =    0.0001              !
 ! A11   A(3,4,10)             121.7884         -DE/DX =    0.0                 !
 ! A12   A(9,4,10)             116.7695         -DE/DX =   -0.0001              !
 ! D1    D(5,1,2,3)           -179.9999         -DE/DX =    0.0                 !
 ! D2    D(5,1,2,7)              0.0001         -DE/DX =    0.0                 !
 ! D3    D(6,1,2,3)              0.0001         -DE/DX =    0.0                 !
 ! D4    D(6,1,2,7)            180.0001         -DE/DX =    0.0                 !
 ! D5    D(1,2,3,4)            179.9996         -DE/DX =    0.0                 !
 ! D6    D(1,2,3,8)             -0.0004         -DE/DX =    0.0                 !
 ! D7    D(7,2,3,4)             -0.0004         -DE/DX =    0.0                 !
 ! D8    D(7,2,3,8)            179.9996         -DE/DX =    0.0                 !
 ! D9    D(2,3,4,9)              0.0001         -DE/DX =    0.0                 !
 ! D10   D(2,3,4,10)           180.0001         -DE/DX =    0.0                 !
 ! D11   D(8,3,4,9)            180.0001         -DE/DX =    0.0                 !
 ! D12   D(8,3,4,10)             0.0001         -DE/DX =    0.0                 !
 --------------------------------------------------------------------------------
 GradGradGradGradGradGradGradGradGradGradGradGradGradGradGradGradGradGrad


 ----------------------------------------------------------------------

 Electric dipole moment (input orientation):
 (Debye = 10**-18 statcoulomb cm , SI units = C m)
                  (au)            (Debye)         (10**-30 SI)
   Tot        0.000000D+00      0.000000D+00      0.000000D+00
   x          0.000000D+00      0.000000D+00      0.000000D+00
   y          0.000000D+00      0.000000D+00      0.000000D+00
   z          0.000000D+00      0.000000D+00      0.000000D+00

 Dipole polarizability, Alpha (input orientation).
 (esu units = cm**3 , SI units = C**2 m**2 J**-1)
 Alpha(0;0):
               (au)            (10**-24 esu)      (10**-40 SI)
   iso        0.445903D+02      0.660760D+01      0.735195D+01
   aniso      0.551868D+02      0.817785D+01      0.909908D+01
   xx         0.785031D+02      0.116330D+02      0.129434D+02
   yx         0.411654D+01      0.610009D+00      0.678726D+00
   yy         0.391099D+02      0.579549D+01      0.644835D+01
   zx        -0.135957D+01     -0.201467D+00     -0.224162D+00
   zy        -0.146439D+01     -0.216999D+00     -0.241444D+00
   zz         0.161579D+02      0.239435D+01      0.266407D+01

 ----------------------------------------------------------------------

 Dipole orientation:
     6         -2.07635638          0.82682515          4.39871757
     6         -0.44344705          2.18871518          3.02358418
     6          0.58760854          1.38991052          0.59830859
     6          2.22050739          2.75179020         -0.77684597
     1         -2.79581020          1.49762917          6.19748644
     1         -2.74422544         -1.00835475          3.76140709
     1          0.18565373          4.02157106          3.72172141
     1         -0.04149141         -0.44295329         -0.09981089
     1          2.88838658          4.58697330         -0.13955663
     1          2.93994544          2.08096622         -2.57561354

 Electric dipole moment (dipole orientation):
 (Debye = 10**-18 statcoulomb cm , SI units = C m)
                  (au)            (Debye)         (10**-30 SI)
   Tot        0.000000D+00      0.000000D+00      0.000000D+00
   x          0.000000D+00      0.000000D+00      0.000000D+00
   y          0.000000D+00      0.000000D+00      0.000000D+00
   z          0.000000D+00      0.000000D+00      0.000000D+00

 Dipole polarizability, Alpha (dipole orientation).
 (esu units = cm**3 , SI units = C**2 m**2 J**-1)
 Alpha(0;0):
               (au)            (10**-24 esu)      (10**-40 SI)
   iso        0.445903D+02      0.660760D+01      0.735195D+01
   aniso      0.551868D+02      0.817785D+01      0.909908D+01
   xx         0.414044D+02      0.613550D+01      0.682666D+01
   yx         0.164904D+02      0.244363D+01      0.271890D+01
   yy         0.392330D+02      0.581374D+01      0.646866D+01
   zx        -0.257299D+02     -0.381277D+01     -0.424228D+01
   zy        -0.503183D+01     -0.745640D+00     -0.829636D+00
   zz         0.531334D+02      0.787356D+01      0.876052D+01

 ----------------------------------------------------------------------
 1\1\GINC-DESKTOP-PRN5QE3\Freq\RB3LYP\6-31G(d,p)\C4H6\SHOHEI\09-Nov-202
 3\0\\#N Geom=AllCheck Guess=TCheck SCRF=Check GenChk RB3LYP/6-31G(d,p)
  Freq\\2poly\\0,1\C,-2.2962705482,1.2422838071,0.0278952529\C,-1.03689
 59073,1.6973327423,-0.0219548858\C,0.1457644601,0.846515776,0.00831978
 65\C,1.4051425367,1.3015531941,-0.0415368223\H,-3.1480020447,1.9137865
 738,0.0025471936\H,-2.5128003848,0.1791552172,0.0958695963\H,-0.857279
 6786,2.7702514503,-0.0898605882\H,-0.0338595044,-0.2264016412,0.076232
 1696\H,1.6216844196,2.364678986,-0.1095131278\H,2.2568656516,0.6300398
 943,-0.016189375\\Version=EM64L-G16RevB.01\State=1-A\HF=-156.0016628\R
 MSD=2.257e-09\RMSF=4.542e-05\ZeroPoint=0.0853052\Thermal=0.0899541\Dip
 ole=-0.0000016,0.0000011,0.000001\DipoleDeriv=-0.1414488,-0.027207,-0.
 0012048,0.0347162,0.1203089,-0.0260544,-0.0049409,-0.0249525,-0.299830
 9,0.1311361,0.0127945,-0.0044155,-0.0899953,0.1083703,-0.0093792,0.001
 7822,-0.0112087,-0.0730559,0.1311402,0.0127949,-0.0044171,-0.0899958,0
 .1083691,-0.0093814,0.0017849,-0.0112098,-0.0730562,-0.1414495,-0.0272
 059,-0.001206,0.0347186,0.120311,-0.0260548,-0.0049397,-0.0249532,-0.2
 998309,-0.0443627,0.0503827,0.0000656,0.0776354,-0.0115211,0.0071626,-
 0.0015772,0.0076474,0.1297008,0.042362,0.0098421,0.0010692,-0.031606,-
 0.1023835,0.01493,0.0035694,0.0141928,0.134912,0.0123119,-0.0458108,0.
 004486,0.00925,-0.114774,0.0133415,0.0011651,0.0143211,0.1082746,0.012
 3111,-0.0458128,0.0044866,0.0092489,-0.1147744,0.0133425,0.0011654,0.0
 143222,0.1082738,0.0423616,0.00984,0.0010698,-0.0316076,-0.102383,0.01
 49307,0.0035695,0.0141929,0.1349122,-0.0443619,0.0503823,0.0000661,0.0
 776357,-0.0115231,0.0071627,-0.0015786,0.0076477,0.1297006\Polar=78.50
 30847,4.1165423,39.1099215,-1.3595662,-1.4643851,16.1578682\Quadrupole
 =1.1799294,1.327361,-2.5072904,0.0081651,-0.0663675,-0.2323491\PG=C01 
 [X(C4H6)]\NImag=0\\0.82762646,0.05516598,0.66309802,-0.01619906,-0.034
 69668,0.10648352,-0.48355387,-0.13621759,0.01593845,0.79344775,-0.1469
 5333,-0.17021110,0.00989760,0.10097141,0.66487526,0.01658598,0.0097065
 7,-0.05033570,-0.01784071,-0.03387856,0.13530642,-0.05187118,0.0142423
 6,0.00017183,-0.17811504,0.08091038,-0.00286897,0.79345288,-0.00358166
 ,0.01583057,-0.00052513,0.08091070,-0.17561414,0.00522714,0.10097047,0
 .66487036,0.00124683,-0.00084220,0.00609653,-0.00286901,0.00522718,-0.
 06534626,-0.01784343,-0.03388095,0.13530684,0.00746470,0.00612502,-0.0
 0046661,-0.05187051,-0.00358161,0.00124696,-0.48355754,-0.14695105,0.0
 1658833,0.82762748,0.00612493,-0.00333578,0.00021301,0.01424259,0.0158
 3055,-0.00084229,-0.13621490,-0.17020865,0.00970734,0.05516568,0.66309
 810,-0.00046662,0.00021299,0.00199799,0.00017185,-0.00052509,0.0060964
 8,0.01594078,0.00989835,-0.05033572,-0.01620216,-0.03469813,0.10648355
 ,-0.22969348,0.13829622,-0.00483608,-0.01863492,0.02148359,-0.00088616
 ,-0.00271349,-0.00428384,0.00053141,-0.00068622,0.00140926,-0.00007562
 ,0.24393007,0.14285122,-0.17273824,0.00590641,-0.01168698,0.01048620,-
 0.00015990,-0.00186670,-0.00077920,0.00084220,-0.00027692,0.00077713,-
 0.00005153,-0.15091961,0.17340061,-0.00511080,0.00598741,-0.03294420,0
 .00111449,-0.00075000,0.00441317,0.00038562,0.00088519,0.01257356,0.00
 002607,-0.00008152,-0.00015447,0.00515741,-0.00643594,0.02247313,-0.06
 847163,-0.04819036,0.00351705,-0.00127942,-0.03124931,0.00199399,0.001
 73901,-0.00202395,-0.00004867,-0.00009518,0.00029105,-0.00001296,0.007
 05075,0.02213538,-0.00142057,0.06586640,-0.05178250,-0.32674271,0.0185
 6833,-0.00103752,-0.00892456,0.00084988,0.00215710,0.00097450,-0.00057
 115,-0.00016477,0.00039916,-0.00001130,-0.00572612,-0.01271809,0.00100
 436,0.05910681,0.34551944,0.00373373,0.01850448,-0.03534048,0.00017176
 ,0.00138733,0.00477356,-0.00030084,-0.00049676,-0.00782343,0.00001454,
 -0.00001942,0.00016406,0.00025987,0.00050868,0.00220983,-0.00433505,-0
 .02052933,0.02389723,-0.00245060,-0.03212240,0.00207711,-0.06420815,-0
 .04089419,0.00287001,0.00518869,0.02562070,-0.00158380,0.00173109,0.00
 100033,-0.00011412,0.00104187,0.00022091,-0.00016005,-0.00475796,-0.00
 171817,0.00039016,0.06730556,-0.00015179,-0.00822647,0.00082464,-0.042
 59533,-0.31921513,0.01750606,-0.00487761,-0.01742211,0.00131996,-0.001
 23110,0.00114948,-0.00012531,-0.00013235,0.00121675,-0.00050563,-0.001
 38874,0.00097616,0.00065026,0.04650957,0.34130224,0.00014884,0.0013934
 1,0.00531468,0.00297264,0.01747574,-0.04263030,0.00025561,0.00077738,0
 .00297242,0.00002049,-0.00016502,-0.00128191,-0.00013875,-0.00051192,-
 0.00717241,0.00037030,0.00065616,0.01130206,-0.00352122,-0.01978061,0.
 02830850,0.00173102,0.00100048,-0.00011411,0.00518854,0.02562072,-0.00
 158386,-0.06420861,-0.04089588,0.00287041,-0.00245096,-0.03212246,0.00
 207725,0.00013435,-0.00036468,0.00001542,-0.00022730,-0.00095637,0.000
 06612,-0.00375757,0.00270427,-0.00003963,0.06730662,-0.00123118,0.0011
 4949,-0.00012534,-0.00487758,-0.01742251,0.00132003,-0.04259682,-0.319
 21325,0.01750760,-0.00015188,-0.00822628,0.00082468,0.00014411,0.00043
 187,-0.00004281,0.00101896,0.00058015,-0.00003820,0.00270431,-0.000792
 87,0.00019168,0.04651114,0.34130044,0.00002046,-0.00016504,-0.00128193
 ,0.00025574,0.00077734,0.00297247,0.00297297,0.01747739,-0.04263066,0.
 00014889,0.00139359,0.00531466,-0.00001527,-0.00003376,-0.00023300,-0.
 00005302,-0.00000307,0.00024829,-0.00003962,0.00019164,0.00317168,-0.0
 0352174,-0.01978231,0.02830885,-0.00009519,0.00029103,-0.00001296,0.00
 173909,-0.00202384,-0.00004872,-0.00127964,-0.03124942,0.00199411,-0.0
 6847285,-0.04819345,0.00351742,0.00002282,0.00008580,-0.00000088,0.000
 15250,0.00021437,-0.00001018,-0.00022729,0.00101895,-0.00005301,-0.004
 75797,-0.00138871,0.00037036,0.06586757,-0.00016476,0.00039913,-0.0000
 1130,0.00215699,0.00097453,-0.00057116,-0.00103753,-0.00892414,0.00084
 989,-0.05178548,-0.32674198,0.01856892,-0.00009284,-0.00000933,0.00001
 815,0.00021437,-0.00005471,0.00001799,-0.00095638,0.00058011,-0.000003
 07,-0.00171810,0.00097621,0.00065616,0.05911011,0.34551846,0.00001453,
 -0.00001941,0.00016406,-0.00030090,-0.00049678,-0.00782339,0.00017189,
 0.00138752,0.00477354,0.00373405,0.01850493,-0.03534052,0.00000989,0.0
 0001497,0.00026307,-0.00001019,0.00001798,0.00030579,0.00006613,-0.000
 03822,0.00024829,0.00039024,0.00065034,0.01130208,-0.00433552,-0.02053
 000,0.02389726,-0.00068624,0.00140926,-0.00007562,-0.00271347,-0.00428
 381,0.00053148,-0.01863507,0.02148392,-0.00088617,-0.22969001,0.138296
 97,-0.00483580,-0.00045175,-0.00017842,-0.00000672,0.00002282,-0.00009
 285,0.00000990,0.00013434,0.00014412,-0.00001527,0.00104187,-0.0001323
 5,-0.00013878,0.00705096,-0.00572637,0.00025988,0.24392655,-0.00027690
 ,0.00077709,-0.00005153,-0.00186670,-0.00077909,0.00084223,-0.01168675
 ,0.01048606,-0.00015987,0.14285210,-0.17274173,0.00590642,-0.00017841,
 -0.00006770,-0.00007921,0.00008579,-0.00000933,0.00001497,-0.00036468,
 0.00043185,-0.00003375,0.00022087,0.00121676,-0.00051195,0.02213516,-0
 .01271827,0.00050867,-0.15092048,0.17340435,0.00002609,-0.00008154,-0.
 00015447,0.00038569,0.00088525,0.01257355,0.00111456,-0.00075014,0.004
 41318,-0.00511057,0.00598751,-0.03294412,-0.00000670,-0.00007920,-0.00
 142867,-0.00000088,0.00001815,0.00026308,0.00001542,-0.00004280,-0.000
 23301,-0.00016009,-0.00050568,-0.00717245,-0.00142062,0.00100443,0.002
 20981,0.00515710,-0.00643598,0.02247311\\-0.00010631,0.00002415,0.0000
 0030,-0.00004056,-0.00010412,0.00000694,0.00004100,0.00010465,-0.00000
 710,0.00010624,-0.00002433,-0.00000056,0.00003438,0.00001050,-0.000001
 26,0.00005821,-0.00000468,-0.00000067,0.00002731,0.00003134,-0.0000022
 5,-0.00002759,-0.00003145,0.00000251,-0.00005814,0.00000459,0.00000084
 ,-0.00003453,-0.00001066,0.00000124\\\@


 IF NO USE IS MADE OF THE LABOR OF PAST AGES,
 THE WORLD MUST REMAIN ALWAYS IN THE INFANCY OF KNOWLEDGE.

                          -- CICERO
 Job cpu time:       0 days  0 hours  2 minutes  5.8 seconds.
 Elapsed time:       0 days  0 hours  2 minutes  5.7 seconds.
 File lengths (MBytes):  RWF=     12 Int=      0 D2E=      0 Chk=     24 Scr=      1
 Normal termination of Gaussian 16 at Thu Nov  9 19:21:12 2023.
