 Entering Gaussian System, Link 0=g16
 Input=./com/20.com
 Output=./log/20.log
 Initial command:
 /home/shohei/gaussian/g16/l1.exe "/home/shohei/gaussian/scratch/Gau-17445.inp" -scrdir="/home/shohei/gaussian/scratch/"
 Entering Link 1 = /home/shohei/gaussian/g16/l1.exe PID=     17447.
  
 Copyright (c) 1988-2017, Gaussian, Inc.  All Rights Reserved.
  
 This is part of the Gaussian(R) 16 program.  It is based on
 the Gaussian(R) 09 system (copyright 2009, Gaussian, Inc.),
 the Gaussian(R) 03 system (copyright 2003, Gaussian, Inc.),
 the Gaussian(R) 98 system (copyright 1998, Gaussian, Inc.),
 the Gaussian(R) 94 system (copyright 1995, Gaussian, Inc.),
 the Gaussian 92(TM) system (copyright 1992, Gaussian, Inc.),
 the Gaussian 90(TM) system (copyright 1990, Gaussian, Inc.),
 the Gaussian 88(TM) system (copyright 1988, Gaussian, Inc.),
 the Gaussian 86(TM) system (copyright 1986, Carnegie Mellon
 University), and the Gaussian 82(TM) system (copyright 1983,
 Carnegie Mellon University). Gaussian is a federally registered
 trademark of Gaussian, Inc.
  
 This software contains proprietary and confidential information,
 including trade secrets, belonging to Gaussian, Inc.
  
 This software is provided under written license and may be
 used, copied, transmitted, or stored only in accord with that
 written license.
  
 The following legend is applicable only to US Government
 contracts under FAR:
  
                    RESTRICTED RIGHTS LEGEND
  
 Use, reproduction and disclosure by the US Government is
 subject to restrictions as set forth in subparagraphs (a)
 and (c) of the Commercial Computer Software - Restricted
 Rights clause in FAR 52.227-19.
  
 Gaussian, Inc.
 340 Quinnipiac St., Bldg. 40, Wallingford CT 06492
  
  
 ---------------------------------------------------------------
 Warning -- This program may not be used in any manner that
 competes with the business of Gaussian, Inc. or will provide
 assistance to any competitor of Gaussian, Inc.  The licensee
 of this program is prohibited from giving any competitor of
 Gaussian, Inc. access to this program.  By using this program,
 the user acknowledges that Gaussian, Inc. is engaged in the
 business of creating and licensing software in the field of
 computational chemistry and represents and warrants to the
 licensee that it is not a competitor of Gaussian, Inc. and that
 it will not use this program in any manner prohibited above.
 ---------------------------------------------------------------
  

 Cite this work as:
 Gaussian 16, Revision B.01,
 M. J. Frisch, G. W. Trucks, H. B. Schlegel, G. E. Scuseria, 
 M. A. Robb, J. R. Cheeseman, G. Scalmani, V. Barone, 
 G. A. Petersson, H. Nakatsuji, X. Li, M. Caricato, A. V. Marenich, 
 J. Bloino, B. G. Janesko, R. Gomperts, B. Mennucci, H. P. Hratchian, 
 J. V. Ortiz, A. F. Izmaylov, J. L. Sonnenberg, D. Williams-Young, 
 F. Ding, F. Lipparini, F. Egidi, J. Goings, B. Peng, A. Petrone, 
 T. Henderson, D. Ranasinghe, V. G. Zakrzewski, J. Gao, N. Rega, 
 G. Zheng, W. Liang, M. Hada, M. Ehara, K. Toyota, R. Fukuda, 
 J. Hasegawa, M. Ishida, T. Nakajima, Y. Honda, O. Kitao, H. Nakai, 
 T. Vreven, K. Throssell, J. A. Montgomery, Jr., J. E. Peralta, 
 F. Ogliaro, M. J. Bearpark, J. J. Heyd, E. N. Brothers, K. N. Kudin, 
 V. N. Staroverov, T. A. Keith, R. Kobayashi, J. Normand, 
 K. Raghavachari, A. P. Rendell, J. C. Burant, S. S. Iyengar, 
 J. Tomasi, M. Cossi, J. M. Millam, M. Klene, C. Adamo, R. Cammi, 
 J. W. Ochterski, R. L. Martin, K. Morokuma, O. Farkas, 
 J. B. Foresman, and D. J. Fox, Gaussian, Inc., Wallingford CT, 2016.
 
 ******************************************
 Gaussian 16:  EM64L-G16RevB.01 20-Dec-2017
                10-Nov-2023 
 ******************************************
 %chk=checkpoint.chk
 %nprocshared=4
 Will use up to    4 processors via shared memory.
 ---------------------------
 # B3LYP/6-31G(d,p) OPT FREQ
 ---------------------------
 1/18=20,19=15,26=3,38=1/1,3;
 2/9=110,12=2,17=6,18=5,40=1/2;
 3/5=1,6=6,7=101,11=2,25=1,30=1,71=1,74=-5/1,2,3;
 4//1;
 5/5=2,38=5/2;
 6/7=2,8=2,9=2,10=2,28=1/1;
 7//1,2,3,16;
 1/18=20,19=15,26=3/3(2);
 2/9=110/2;
 99//99;
 2/9=110/2;
 3/5=1,6=6,7=101,11=2,25=1,30=1,71=1,74=-5/1,2,3;
 4/5=5,16=3,69=1/1;
 5/5=2,38=5/2;
 7//1,2,3,16;
 1/18=20,19=15,26=3/3(-5);
 2/9=110/2;
 6/7=2,8=2,9=2,10=2,19=2,28=1/1;
 99/9=1/99;
 ------
 20poly
 ------
 Symbolic Z-matrix:
 Charge =  0 Multiplicity = 1
 C                    -2.37546   1.12644   0.0159 
 C                    -1.16108   1.6796   -0.02306 
 C                     0.05872   0.84725   0.01772 
 C                     1.27532   1.40645  -0.02171 
 C                     2.49578   0.57417   0.01905 
 C                     3.71247   1.13326  -0.02061 
 C                     4.93282   0.30083   0.02014 
 C                     6.14954   0.85981  -0.01984 
 C                     7.3699    0.02738   0.02091 
 C                     8.58652   0.58653  -0.01946 
 C                     9.80718  -0.24548   0.0213 
 C                     11.02345   0.31438  -0.01948 
 C                     12.24488  -0.51652   0.02131 
 C                     13.46042   0.04487  -0.01987 
 C                     14.68326  -0.78396   0.02098 
 C                     15.89758  -0.21998  -0.02056 
 C                     17.12261  -1.04559   0.02039 
 C                     18.33515  -0.47784  -0.02145 
 C                     19.56317  -1.29898   0.01963 
 C                     20.77336  -0.72624  -0.02241 
 C                     22.00514  -1.5417    0.01883 
 C                     23.21244  -0.96285  -0.02332 
 C                     24.44863  -1.77158   0.01811 
 C                     25.65259  -1.18578  -0.02406 
 C                     26.89361  -1.98701   0.01758 
 C                     28.09393  -1.39376  -0.02454 
 C                     29.33994  -2.18717   0.01731 
 C                     30.53655  -1.58641  -0.02472 
 C                     31.78737  -2.37214   0.01734 
 C                     32.98043  -1.76432  -0.02458 
 C                     34.23561  -2.54303   0.01766 
 C                     35.42553  -1.92904  -0.02418 
 C                     36.68432  -2.70186   0.0182 
 C                     37.87171  -2.08298  -0.02359 
 C                     39.1332  -2.85138   0.01889 
 C                     40.31882  -2.22911  -0.02291 
 C                     41.58203  -2.99471   0.01964 
 C                     42.76662  -2.3706   -0.02219 
 C                     44.02992  -3.13513   0.0204 
 C                     45.21228  -2.5166   -0.02109 
 H                    -3.25905   1.75572  -0.01516 
 H                    -2.50074   0.04945   0.07862 
 H                    -1.07734   2.76129  -0.08582 
 H                    -0.03763  -0.23436   0.08062 
 H                     1.37082   2.48813  -0.08465 
 H                     2.40007  -0.50745   0.08212 
 H                     3.80824   2.21489  -0.08374 
 H                     4.83703  -0.78077   0.08346 
 H                     6.24533   1.94142  -0.08324 
 H                     7.27423  -1.05421   0.08455 
 H                     8.68203   1.66815  -0.08318 
 H                     9.71206  -1.32709   0.0853 
 H                     11.11814   1.39605  -0.08354 
 H                     12.151   -1.59821   0.08569 
 H                     13.55352   1.12667  -0.08429 
 H                     14.5915  -1.86579   0.08573 
 H                     15.98813   0.86202  -0.08533 
 H                     17.034   -2.12766   0.08547 
 H                     18.42208   0.60445  -0.08653 
 H                     19.4788  -2.38137   0.08501 
 H                     20.85561   0.35641  -0.08775 
 H                     21.92603  -2.62446   0.08445 
 H                     23.28905   0.1202   -0.08887 
 H                     24.37559  -2.85475   0.08392 
 H                     25.72285  -0.10229  -0.08977 
 H                     26.82718  -3.0706    0.08352 
 H                     28.15748  -0.30987  -0.09036 
 H                     29.28026  -3.27114   0.08334 
 H                     30.59341  -0.50216  -0.09062 
 H                     31.73417  -3.45646   0.08342 
 H                     33.03107  -0.67977  -0.09055 
 H                     34.18818  -3.62762   0.08378 
 H                     35.47081  -0.84426  -0.09021 
 H                     36.64159  -3.78665   0.08437 
 H                     37.91283  -0.99805  -0.0897 
 H                     39.09387  -3.93631   0.08511 
 H                     40.35713  -1.14409  -0.08909 
 H                     41.54489  -4.07973   0.08591 
 H                     42.80419  -1.28554  -0.08845 
 H                     44.00529  -4.21955   0.08663 
 H                     45.27854  -1.43457  -0.0873 
 H                     46.12896  -3.09653   0.01137 
 

 GradGradGradGradGradGradGradGradGradGradGradGradGradGradGradGradGradGrad
 Berny optimization.
 Initialization pass.
                           ----------------------------
                           !    Initial Parameters    !
                           ! (Angstroms and Degrees)  !
 --------------------------                            --------------------------
 ! Name  Definition              Value          Derivative Info.                !
 --------------------------------------------------------------------------------
 ! R1    R(1,2)                  1.335          estimate D2E/DX2                !
 ! R2    R(1,41)                 1.0852         estimate D2E/DX2                !
 ! R3    R(1,42)                 1.0861         estimate D2E/DX2                !
 ! R4    R(2,3)                  1.4773         estimate D2E/DX2                !
 ! R5    R(2,43)                 1.0867         estimate D2E/DX2                !
 ! R6    R(3,4)                  1.3395         estimate D2E/DX2                !
 ! R7    R(3,44)                 1.0877         estimate D2E/DX2                !
 ! R8    R(4,5)                  1.4778         estimate D2E/DX2                !
 ! R9    R(4,45)                 1.0877         estimate D2E/DX2                !
 ! R10   R(5,6)                  1.3396         estimate D2E/DX2                !
 ! R11   R(5,46)                 1.0877         estimate D2E/DX2                !
 ! R12   R(6,7)                  1.4778         estimate D2E/DX2                !
 ! R13   R(6,47)                 1.0877         estimate D2E/DX2                !
 ! R14   R(7,8)                  1.3396         estimate D2E/DX2                !
 ! R15   R(7,48)                 1.0877         estimate D2E/DX2                !
 ! R16   R(8,9)                  1.4778         estimate D2E/DX2                !
 ! R17   R(8,49)                 1.0877         estimate D2E/DX2                !
 ! R18   R(9,10)                 1.3396         estimate D2E/DX2                !
 ! R19   R(9,50)                 1.0877         estimate D2E/DX2                !
 ! R20   R(10,11)                1.4778         estimate D2E/DX2                !
 ! R21   R(10,51)                1.0877         estimate D2E/DX2                !
 ! R22   R(11,12)                1.3396         estimate D2E/DX2                !
 ! R23   R(11,52)                1.0877         estimate D2E/DX2                !
 ! R24   R(12,13)                1.4778         estimate D2E/DX2                !
 ! R25   R(12,53)                1.0877         estimate D2E/DX2                !
 ! R26   R(13,14)                1.3395         estimate D2E/DX2                !
 ! R27   R(13,54)                1.0877         estimate D2E/DX2                !
 ! R28   R(14,15)                1.4778         estimate D2E/DX2                !
 ! R29   R(14,55)                1.0877         estimate D2E/DX2                !
 ! R30   R(15,16)                1.3395         estimate D2E/DX2                !
 ! R31   R(15,56)                1.0877         estimate D2E/DX2                !
 ! R32   R(16,17)                1.4778         estimate D2E/DX2                !
 ! R33   R(16,57)                1.0877         estimate D2E/DX2                !
 ! R34   R(17,18)                1.3395         estimate D2E/DX2                !
 ! R35   R(17,58)                1.0876         estimate D2E/DX2                !
 ! R36   R(18,19)                1.4778         estimate D2E/DX2                !
 ! R37   R(18,59)                1.0877         estimate D2E/DX2                !
 ! R38   R(19,20)                1.3395         estimate D2E/DX2                !
 ! R39   R(19,60)                1.0876         estimate D2E/DX2                !
 ! R40   R(20,21)                1.4778         estimate D2E/DX2                !
 ! R41   R(20,61)                1.0877         estimate D2E/DX2                !
 ! R42   R(21,22)                1.3396         estimate D2E/DX2                !
 ! R43   R(21,62)                1.0876         estimate D2E/DX2                !
 ! R44   R(22,23)                1.4778         estimate D2E/DX2                !
 ! R45   R(22,63)                1.0877         estimate D2E/DX2                !
 ! R46   R(23,24)                1.3396         estimate D2E/DX2                !
 ! R47   R(23,64)                1.0876         estimate D2E/DX2                !
 ! R48   R(24,25)                1.4778         estimate D2E/DX2                !
 ! R49   R(24,65)                1.0877         estimate D2E/DX2                !
 ! R50   R(25,26)                1.3396         estimate D2E/DX2                !
 ! R51   R(25,66)                1.0876         estimate D2E/DX2                !
 ! R52   R(26,27)                1.4778         estimate D2E/DX2                !
 ! R53   R(26,67)                1.0877         estimate D2E/DX2                !
 ! R54   R(27,28)                1.3396         estimate D2E/DX2                !
 ! R55   R(27,68)                1.0876         estimate D2E/DX2                !
 ! R56   R(28,29)                1.4777         estimate D2E/DX2                !
 ! R57   R(28,69)                1.0877         estimate D2E/DX2                !
 ! R58   R(29,30)                1.3396         estimate D2E/DX2                !
 ! R59   R(29,70)                1.0876         estimate D2E/DX2                !
 ! R60   R(30,31)                1.4777         estimate D2E/DX2                !
 ! R61   R(30,71)                1.0877         estimate D2E/DX2                !
 ! R62   R(31,32)                1.3396         estimate D2E/DX2                !
 ! R63   R(31,72)                1.0876         estimate D2E/DX2                !
 ! R64   R(32,33)                1.4777         estimate D2E/DX2                !
 ! R65   R(32,73)                1.0877         estimate D2E/DX2                !
 ! R66   R(33,34)                1.3397         estimate D2E/DX2                !
 ! R67   R(33,74)                1.0876         estimate D2E/DX2                !
 ! R68   R(34,35)                1.4777         estimate D2E/DX2                !
 ! R69   R(34,75)                1.0877         estimate D2E/DX2                !
 ! R70   R(35,36)                1.3397         estimate D2E/DX2                !
 ! R71   R(35,76)                1.0877         estimate D2E/DX2                !
 ! R72   R(36,37)                1.4777         estimate D2E/DX2                !
 ! R73   R(36,77)                1.0877         estimate D2E/DX2                !
 ! R74   R(37,38)                1.3396         estimate D2E/DX2                !
 ! R75   R(37,78)                1.0877         estimate D2E/DX2                !
 ! R76   R(38,39)                1.4772         estimate D2E/DX2                !
 ! R77   R(38,79)                1.0877         estimate D2E/DX2                !
 ! R78   R(39,40)                1.335          estimate D2E/DX2                !
 ! R79   R(39,80)                1.0867         estimate D2E/DX2                !
 ! R80   R(40,81)                1.0861         estimate D2E/DX2                !
 ! R81   R(40,82)                1.0852         estimate D2E/DX2                !
 ! A1    A(2,1,41)             119.9694         estimate D2E/DX2                !
 ! A2    A(2,1,42)             121.1652         estimate D2E/DX2                !
 ! A3    A(41,1,42)            118.8653         estimate D2E/DX2                !
 ! A4    A(1,2,3)              121.1202         estimate D2E/DX2                !
 ! A5    A(1,2,43)             118.9602         estimate D2E/DX2                !
 ! A6    A(3,2,43)             119.9195         estimate D2E/DX2                !
 ! A7    A(2,3,4)              120.9236         estimate D2E/DX2                !
 ! A8    A(2,3,44)             119.2565         estimate D2E/DX2                !
 ! A9    A(4,3,44)             119.8199         estimate D2E/DX2                !
 ! A10   A(3,4,5)              120.9402         estimate D2E/DX2                !
 ! A11   A(3,4,45)             119.7743         estimate D2E/DX2                !
 ! A12   A(5,4,45)             119.2855         estimate D2E/DX2                !
 ! A13   A(4,5,6)              120.946          estimate D2E/DX2                !
 ! A14   A(4,5,46)             119.2736         estimate D2E/DX2                !
 ! A15   A(6,5,46)             119.7803         estimate D2E/DX2                !
 ! A16   A(5,6,7)              120.9388         estimate D2E/DX2                !
 ! A17   A(5,6,47)             119.783          estimate D2E/DX2                !
 ! A18   A(7,6,47)             119.2782         estimate D2E/DX2                !
 ! A19   A(6,7,8)              120.9427         estimate D2E/DX2                !
 ! A20   A(6,7,48)             119.2765         estimate D2E/DX2                !
 ! A21   A(8,7,48)             119.7807         estimate D2E/DX2                !
 ! A22   A(7,8,9)              120.9433         estimate D2E/DX2                !
 ! A23   A(7,8,49)             119.7804         estimate D2E/DX2                !
 ! A24   A(9,8,49)             119.2763         estimate D2E/DX2                !
 ! A25   A(8,9,10)             120.9343         estimate D2E/DX2                !
 ! A26   A(8,9,50)             119.2822         estimate D2E/DX2                !
 ! A27   A(10,9,50)            119.7836         estimate D2E/DX2                !
 ! A28   A(9,10,11)            120.9542         estimate D2E/DX2                !
 ! A29   A(9,10,51)            119.7748         estimate D2E/DX2                !
 ! A30   A(11,10,51)           119.2709         estimate D2E/DX2                !
 ! A31   A(10,11,12)           120.9194         estimate D2E/DX2                !
 ! A32   A(10,11,52)           119.2915         estimate D2E/DX2                !
 ! A33   A(12,11,52)           119.7891         estimate D2E/DX2                !
 ! A34   A(11,12,13)           120.9718         estimate D2E/DX2                !
 ! A35   A(11,12,53)           119.7665         estimate D2E/DX2                !
 ! A36   A(13,12,53)           119.2617         estimate D2E/DX2                !
 ! A37   A(12,13,14)           120.8984         estimate D2E/DX2                !
 ! A38   A(12,13,54)           119.3043         estimate D2E/DX2                !
 ! A39   A(14,13,54)           119.7974         estimate D2E/DX2                !
 ! A40   A(13,14,15)           120.9951         estimate D2E/DX2                !
 ! A41   A(13,14,55)           119.7559         estimate D2E/DX2                !
 ! A42   A(15,14,55)           119.249          estimate D2E/DX2                !
 ! A43   A(14,15,16)           120.8724         estimate D2E/DX2                !
 ! A44   A(14,15,56)           119.3196         estimate D2E/DX2                !
 ! A45   A(16,15,56)           119.808          estimate D2E/DX2                !
 ! A46   A(15,16,17)           121.0226         estimate D2E/DX2                !
 ! A47   A(15,16,57)           119.7438         estimate D2E/DX2                !
 ! A48   A(17,16,57)           119.2336         estimate D2E/DX2                !
 ! A49   A(16,17,18)           120.8437         estimate D2E/DX2                !
 ! A50   A(16,17,58)           119.3361         estimate D2E/DX2                !
 ! A51   A(18,17,58)           119.8201         estimate D2E/DX2                !
 ! A52   A(17,18,19)           121.0516         estimate D2E/DX2                !
 ! A53   A(17,18,59)           119.7314         estimate D2E/DX2                !
 ! A54   A(19,18,59)           119.217          estimate D2E/DX2                !
 ! A55   A(18,19,20)           120.8153         estimate D2E/DX2                !
 ! A56   A(18,19,60)           119.3521         estimate D2E/DX2                !
 ! A57   A(20,19,60)           119.8326         estimate D2E/DX2                !
 ! A58   A(19,20,21)           121.0789         estimate D2E/DX2                !
 ! A59   A(19,20,61)           119.7201         estimate D2E/DX2                !
 ! A60   A(21,20,61)           119.2009         estimate D2E/DX2                !
 ! A61   A(20,21,22)           120.7903         estimate D2E/DX2                !
 ! A62   A(20,21,62)           119.3658         estimate D2E/DX2                !
 ! A63   A(22,21,62)           119.8439         estimate D2E/DX2                !
 ! A64   A(21,22,23)           121.1015         estimate D2E/DX2                !
 ! A65   A(21,22,63)           119.7114         estimate D2E/DX2                !
 ! A66   A(23,22,63)           119.1871         estimate D2E/DX2                !
 ! A67   A(22,23,24)           120.7718         estimate D2E/DX2                !
 ! A68   A(22,23,64)           119.3753         estimate D2E/DX2                !
 ! A69   A(24,23,64)           119.8529         estimate D2E/DX2                !
 ! A70   A(23,24,25)           121.1164         estimate D2E/DX2                !
 ! A71   A(23,24,65)           119.7063         estimate D2E/DX2                !
 ! A72   A(25,24,65)           119.1774         estimate D2E/DX2                !
 ! A73   A(24,25,26)           120.7623         estimate D2E/DX2                !
 ! A74   A(24,25,66)           119.3794         estimate D2E/DX2                !
 ! A75   A(26,25,66)           119.8583         estimate D2E/DX2                !
 ! A76   A(25,26,27)           121.1211         estimate D2E/DX2                !
 ! A77   A(25,26,67)           119.7057         estimate D2E/DX2                !
 ! A78   A(27,26,67)           119.1731         estimate D2E/DX2                !
 ! A79   A(26,27,28)           120.7638         estimate D2E/DX2                !
 ! A80   A(26,27,68)           119.377          estimate D2E/DX2                !
 ! A81   A(28,27,68)           119.8591         estimate D2E/DX2                !
 ! A82   A(27,28,29)           121.1144         estimate D2E/DX2                !
 ! A83   A(27,28,69)           119.7102         estimate D2E/DX2                !
 ! A84   A(29,28,69)           119.1754         estimate D2E/DX2                !
 ! A85   A(28,29,30)           120.7769         estimate D2E/DX2                !
 ! A86   A(28,29,70)           119.3681         estimate D2E/DX2                !
 ! A87   A(30,29,70)           119.855          estimate D2E/DX2                !
 ! A88   A(29,30,31)           121.0962         estimate D2E/DX2                !
 ! A89   A(29,30,71)           119.7194         estimate D2E/DX2                !
 ! A90   A(31,30,71)           119.1844         estimate D2E/DX2                !
 ! A91   A(30,31,32)           120.8009         estimate D2E/DX2                !
 ! A92   A(30,31,72)           119.3531         estimate D2E/DX2                !
 ! A93   A(32,31,72)           119.846          estimate D2E/DX2                !
 ! A94   A(31,32,33)           121.0682         estimate D2E/DX2                !
 ! A95   A(31,32,73)           119.7324         estimate D2E/DX2                !
 ! A96   A(33,32,73)           119.1994         estimate D2E/DX2                !
 ! A97   A(32,33,34)           120.8332         estimate D2E/DX2                !
 ! A98   A(32,33,74)           119.3338         estimate D2E/DX2                !
 ! A99   A(34,33,74)           119.833          estimate D2E/DX2                !
 ! A100  A(33,34,35)           121.0335         estimate D2E/DX2                !
 ! A101  A(33,34,75)           119.7477         estimate D2E/DX2                !
 ! A102  A(35,34,75)           119.2188         estimate D2E/DX2                !
 ! A103  A(34,35,36)           120.8701         estimate D2E/DX2                !
 ! A104  A(34,35,76)           119.3125         estimate D2E/DX2                !
 ! A105  A(36,35,76)           119.8173         estimate D2E/DX2                !
 ! A106  A(35,36,37)           120.9974         estimate D2E/DX2                !
 ! A107  A(35,36,77)           119.7632         estimate D2E/DX2                !
 ! A108  A(37,36,77)           119.2394         estimate D2E/DX2                !
 ! A109  A(36,37,38)           120.907          estimate D2E/DX2                !
 ! A110  A(36,37,78)           119.3007         estimate D2E/DX2                !
 ! A111  A(38,37,78)           119.7924         estimate D2E/DX2                !
 ! A112  A(37,38,39)           120.9438         estimate D2E/DX2                !
 ! A113  A(37,38,79)           119.8146         estimate D2E/DX2                !
 ! A114  A(39,38,79)           119.2416         estimate D2E/DX2                !
 ! A115  A(38,39,40)           121.1116         estimate D2E/DX2                !
 ! A116  A(38,39,80)           119.9221         estimate D2E/DX2                !
 ! A117  A(40,39,80)           118.9663         estimate D2E/DX2                !
 ! A118  A(39,40,81)           121.1652         estimate D2E/DX2                !
 ! A119  A(39,40,82)           119.9732         estimate D2E/DX2                !
 ! A120  A(81,40,82)           118.8616         estimate D2E/DX2                !
 ! D1    D(41,1,2,3)          -179.9998         estimate D2E/DX2                !
 ! D2    D(41,1,2,43)           -0.0002         estimate D2E/DX2                !
 ! D3    D(42,1,2,3)            -0.0005         estimate D2E/DX2                !
 ! D4    D(42,1,2,43)          179.9991         estimate D2E/DX2                !
 ! D5    D(1,2,3,4)            179.9941         estimate D2E/DX2                !
 ! D6    D(1,2,3,44)            -0.0044         estimate D2E/DX2                !
 ! D7    D(43,2,3,4)            -0.0055         estimate D2E/DX2                !
 ! D8    D(43,2,3,44)          179.996          estimate D2E/DX2                !
 ! D9    D(2,3,4,5)           -179.9995         estimate D2E/DX2                !
 ! D10   D(2,3,4,45)            -0.0008         estimate D2E/DX2                !
 ! D11   D(44,3,4,5)            -0.0009         estimate D2E/DX2                !
 ! D12   D(44,3,4,45)          179.9977         estimate D2E/DX2                !
 ! D13   D(3,4,5,6)            179.9883         estimate D2E/DX2                !
 ! D14   D(3,4,5,46)            -0.0094         estimate D2E/DX2                !
 ! D15   D(45,4,5,6)            -0.0104         estimate D2E/DX2                !
 ! D16   D(45,4,5,46)          179.9919         estimate D2E/DX2                !
 ! D17   D(4,5,6,7)           -179.9993         estimate D2E/DX2                !
 ! D18   D(4,5,6,47)            -0.0013         estimate D2E/DX2                !
 ! D19   D(46,5,6,7)            -0.0016         estimate D2E/DX2                !
 ! D20   D(46,5,6,47)          179.9964         estimate D2E/DX2                !
 ! D21   D(5,6,7,8)            179.9838         estimate D2E/DX2                !
 ! D22   D(5,6,7,48)            -0.0137         estimate D2E/DX2                !
 ! D23   D(47,6,7,8)            -0.0143         estimate D2E/DX2                !
 ! D24   D(47,6,7,48)          179.9883         estimate D2E/DX2                !
 ! D25   D(6,7,8,9)           -179.9999         estimate D2E/DX2                !
 ! D26   D(6,7,8,49)            -0.0019         estimate D2E/DX2                !
 ! D27   D(48,7,8,9)            -0.0025         estimate D2E/DX2                !
 ! D28   D(48,7,8,49)          179.9956         estimate D2E/DX2                !
 ! D29   D(7,8,9,10)           179.9813         estimate D2E/DX2                !
 ! D30   D(7,8,9,50)            -0.0167         estimate D2E/DX2                !
 ! D31   D(49,8,9,10)           -0.0168         estimate D2E/DX2                !
 ! D32   D(49,8,9,50)          179.9852         estimate D2E/DX2                !
 ! D33   D(8,9,10,11)          179.9983         estimate D2E/DX2                !
 ! D34   D(8,9,10,51)           -0.0027         estimate D2E/DX2                !
 ! D35   D(50,9,10,11)          -0.0037         estimate D2E/DX2                !
 ! D36   D(50,9,10,51)         179.9953         estimate D2E/DX2                !
 ! D37   D(9,10,11,12)         179.9814         estimate D2E/DX2                !
 ! D38   D(9,10,11,52)          -0.0181         estimate D2E/DX2                !
 ! D39   D(51,10,11,12)         -0.0176         estimate D2E/DX2                !
 ! D40   D(51,10,11,52)        179.9829         estimate D2E/DX2                !
 ! D41   D(10,11,12,13)        179.9954         estimate D2E/DX2                !
 ! D42   D(10,11,12,53)         -0.0037         estimate D2E/DX2                !
 ! D43   D(52,11,12,13)         -0.0051         estimate D2E/DX2                !
 ! D44   D(52,11,12,53)        179.9958         estimate D2E/DX2                !
 ! D45   D(11,12,13,14)        179.9841         estimate D2E/DX2                !
 ! D46   D(11,12,13,54)         -0.0178         estimate D2E/DX2                !
 ! D47   D(53,12,13,14)         -0.0168         estimate D2E/DX2                !
 ! D48   D(53,12,13,54)        179.9813         estimate D2E/DX2                !
 ! D49   D(12,13,14,15)        179.9913         estimate D2E/DX2                !
 ! D50   D(12,13,14,55)         -0.005          estimate D2E/DX2                !
 ! D51   D(54,13,14,15)         -0.0067         estimate D2E/DX2                !
 ! D52   D(54,13,14,55)        179.9969         estimate D2E/DX2                !
 ! D53   D(13,14,15,16)        179.9892         estimate D2E/DX2                !
 ! D54   D(13,14,15,56)         -0.0159         estimate D2E/DX2                !
 ! D55   D(55,14,15,16)         -0.0144         estimate D2E/DX2                !
 ! D56   D(55,14,15,56)        179.9805         estimate D2E/DX2                !
 ! D57   D(14,15,16,17)        179.9865         estimate D2E/DX2                !
 ! D58   D(14,15,16,57)         -0.0065         estimate D2E/DX2                !
 ! D59   D(56,15,16,17)         -0.0084         estimate D2E/DX2                !
 ! D60   D(56,15,16,57)        179.9986         estimate D2E/DX2                !
 ! D61   D(15,16,17,18)        179.9961         estimate D2E/DX2                !
 ! D62   D(15,16,17,58)         -0.0127         estimate D2E/DX2                !
 ! D63   D(57,16,17,18)         -0.0109         estimate D2E/DX2                !
 ! D64   D(57,16,17,58)        179.9804         estimate D2E/DX2                !
 ! D65   D(16,17,18,19)        179.9812         estimate D2E/DX2                !
 ! D66   D(16,17,18,59)         -0.0082         estimate D2E/DX2                !
 ! D67   D(58,17,18,19)         -0.01           estimate D2E/DX2                !
 ! D68   D(58,17,18,59)       -179.9994         estimate D2E/DX2                !
 ! D69   D(17,18,19,20)       -179.9961         estimate D2E/DX2                !
 ! D70   D(17,18,19,60)         -0.0085         estimate D2E/DX2                !
 ! D71   D(59,18,19,20)         -0.0066         estimate D2E/DX2                !
 ! D72   D(59,18,19,60)        179.981          estimate D2E/DX2                !
 ! D73   D(18,19,20,21)        179.9762         estimate D2E/DX2                !
 ! D74   D(18,19,20,61)         -0.0097         estimate D2E/DX2                !
 ! D75   D(60,19,20,21)         -0.0113         estimate D2E/DX2                !
 ! D76   D(60,19,20,61)       -179.9972         estimate D2E/DX2                !
 ! D77   D(19,20,21,22)       -179.9881         estimate D2E/DX2                !
 ! D78   D(19,20,21,62)         -0.0039         estimate D2E/DX2                !
 ! D79   D(61,20,21,22)         -0.0022         estimate D2E/DX2                !
 ! D80   D(61,20,21,62)        179.982          estimate D2E/DX2                !
 ! D81   D(20,21,22,23)        179.9719         estimate D2E/DX2                !
 ! D82   D(20,21,22,63)         -0.0111         estimate D2E/DX2                !
 ! D83   D(62,21,22,23)         -0.0123         estimate D2E/DX2                !
 ! D84   D(62,21,22,63)       -179.9952         estimate D2E/DX2                !
 ! D85   D(21,22,23,24)       -179.9812         estimate D2E/DX2                !
 ! D86   D(21,22,23,64)          0.0004         estimate D2E/DX2                !
 ! D87   D(63,22,23,24)          0.0018         estimate D2E/DX2                !
 ! D88   D(63,22,23,64)        179.9835         estimate D2E/DX2                !
 ! D89   D(22,23,24,25)        179.9689         estimate D2E/DX2                !
 ! D90   D(22,23,24,65)         -0.012          estimate D2E/DX2                !
 ! D91   D(64,23,24,25)         -0.0126         estimate D2E/DX2                !
 ! D92   D(64,23,24,65)       -179.9936         estimate D2E/DX2                !
 ! D93   D(23,24,25,26)       -179.9761         estimate D2E/DX2                !
 ! D94   D(23,24,25,66)          0.0041         estimate D2E/DX2                !
 ! D95   D(65,24,25,26)          0.0049         estimate D2E/DX2                !
 ! D96   D(65,24,25,66)        179.9851         estimate D2E/DX2                !
 ! D97   D(24,25,26,27)        179.9678         estimate D2E/DX2                !
 ! D98   D(24,25,26,67)         -0.0125         estimate D2E/DX2                !
 ! D99   D(66,25,26,27)         -0.0123         estimate D2E/DX2                !
 ! D100  D(66,25,26,67)       -179.9926         estimate D2E/DX2                !
 ! D101  D(25,26,27,28)       -179.9737         estimate D2E/DX2                !
 ! D102  D(25,26,27,68)          0.0065         estimate D2E/DX2                !
 ! D103  D(67,26,27,28)          0.0066         estimate D2E/DX2                !
 ! D104  D(67,26,27,68)        179.9868         estimate D2E/DX2                !
 ! D105  D(26,27,28,29)        179.9687         estimate D2E/DX2                !
 ! D106  D(26,27,28,69)         -0.0123         estimate D2E/DX2                !
 ! D107  D(68,27,28,29)         -0.0114         estimate D2E/DX2                !
 ! D108  D(68,27,28,69)       -179.9924         estimate D2E/DX2                !
 ! D109  D(27,28,29,30)       -179.9743         estimate D2E/DX2                !
 ! D110  D(27,28,29,70)          0.0074         estimate D2E/DX2                !
 ! D111  D(69,28,29,30)          0.0068         estimate D2E/DX2                !
 ! D112  D(69,28,29,70)        179.9885         estimate D2E/DX2                !
 ! D113  D(28,29,30,31)        179.9718         estimate D2E/DX2                !
 ! D114  D(28,29,30,71)         -0.0114         estimate D2E/DX2                !
 ! D115  D(70,29,30,31)         -0.0098         estimate D2E/DX2                !
 ! D116  D(70,29,30,71)       -179.993          estimate D2E/DX2                !
 ! D117  D(29,30,31,32)       -179.9778         estimate D2E/DX2                !
 ! D118  D(29,30,31,72)          0.0067         estimate D2E/DX2                !
 ! D119  D(71,30,31,32)          0.0055         estimate D2E/DX2                !
 ! D120  D(71,30,31,72)        179.99           estimate D2E/DX2                !
 ! D121  D(30,31,32,33)        179.9767         estimate D2E/DX2                !
 ! D122  D(30,31,32,73)         -0.0099         estimate D2E/DX2                !
 ! D123  D(72,31,32,33)         -0.0077         estimate D2E/DX2                !
 ! D124  D(72,31,32,73)       -179.9943         estimate D2E/DX2                !
 ! D125  D(31,32,33,34)       -179.9835         estimate D2E/DX2                !
 ! D126  D(31,32,33,74)          0.0048         estimate D2E/DX2                !
 ! D127  D(73,32,33,34)          0.0032         estimate D2E/DX2                !
 ! D128  D(73,32,33,74)        179.9915         estimate D2E/DX2                !
 ! D129  D(32,33,34,35)        179.9828         estimate D2E/DX2                !
 ! D130  D(32,33,34,75)         -0.0079         estimate D2E/DX2                !
 ! D131  D(74,33,34,35)         -0.0054         estimate D2E/DX2                !
 ! D132  D(74,33,34,75)       -179.996          estimate D2E/DX2                !
 ! D133  D(33,34,35,36)       -179.9902         estimate D2E/DX2                !
 ! D134  D(33,34,35,76)          0.0022         estimate D2E/DX2                !
 ! D135  D(75,34,35,36)          0.0005         estimate D2E/DX2                !
 ! D136  D(75,34,35,76)        179.9929         estimate D2E/DX2                !
 ! D137  D(34,35,36,37)        179.9893         estimate D2E/DX2                !
 ! D138  D(34,35,36,77)         -0.0055         estimate D2E/DX2                !
 ! D139  D(76,35,36,37)         -0.0031         estimate D2E/DX2                !
 ! D140  D(76,35,36,77)       -179.9979         estimate D2E/DX2                !
 ! D141  D(35,36,37,38)       -179.9963         estimate D2E/DX2                !
 ! D142  D(35,36,37,78)         -0.0002         estimate D2E/DX2                !
 ! D143  D(77,36,37,38)         -0.0015         estimate D2E/DX2                !
 ! D144  D(77,36,37,78)        179.9946         estimate D2E/DX2                !
 ! D145  D(36,37,38,39)        179.995          estimate D2E/DX2                !
 ! D146  D(36,37,38,79)         -0.0031         estimate D2E/DX2                !
 ! D147  D(78,37,38,39)         -0.0011         estimate D2E/DX2                !
 ! D148  D(78,37,38,79)       -179.9992         estimate D2E/DX2                !
 ! D149  D(37,38,39,40)        179.9999         estimate D2E/DX2                !
 ! D150  D(37,38,39,80)         -0.0013         estimate D2E/DX2                !
 ! D151  D(79,38,39,40)         -0.0019         estimate D2E/DX2                !
 ! D152  D(79,38,39,80)        179.9968         estimate D2E/DX2                !
 ! D153  D(38,39,40,81)         -0.0009         estimate D2E/DX2                !
 ! D154  D(38,39,40,82)        179.999          estimate D2E/DX2                !
 ! D155  D(80,39,40,81)       -179.9997         estimate D2E/DX2                !
 ! D156  D(80,39,40,82)          0.0002         estimate D2E/DX2                !
 --------------------------------------------------------------------------------
 Trust Radius=3.00D-01 FncErr=1.00D-07 GrdErr=1.00D-06 EigMax=2.50D+02 EigMin=1.00D-04
 Number of steps in this run=    367 maximum allowed number of steps=    492.
 GradGradGradGradGradGradGradGradGradGradGradGradGradGradGradGradGradGrad

 Stoichiometry    C40H42
 Framework group  C1[X(C40H42)]
 Deg. of freedom   240
 Full point group                 C1      NOp   1
 Largest Abelian subgroup         C1      NOp   1
 Largest concise Abelian subgroup C1      NOp   1
                         Standard orientation:                         
 ---------------------------------------------------------------------
 Center     Atomic      Atomic             Coordinates (Angstroms)
 Number     Number       Type             X           Y           Z
 ---------------------------------------------------------------------
      1          6           0       23.871018    0.090360    0.009797
      2          6           0       22.712132   -0.572363    0.008419
      3          6           0       21.421517    0.146460    0.008713
      4          6           0       20.260972   -0.522508    0.007208
      5          6           0       18.969714    0.196183    0.007490
      6          6           0       17.809064   -0.472686    0.005751
      7          6           0       16.517901    0.246168    0.006019
      8          6           0       15.357216   -0.422614    0.003954
      9          6           0       14.066038    0.296231    0.004220
     10          6           0       12.905470   -0.372727    0.001780
     11          6           0       11.614031    0.345674    0.002081
     12          6           0       10.453879   -0.323984   -0.000733
     13          6           0        9.161773    0.393243   -0.000334
     14          6           0        8.002488   -0.277895   -0.003469
     15          6           0        6.709164    0.437152   -0.002886
     16          6           0        5.551325   -0.236466   -0.006244
     17          6           0        4.256126    0.475189   -0.005374
     18          6           0        3.100396   -0.202040   -0.008819
     19          6           0        1.802626    0.504909   -0.007553
     20          6           0        0.649693   -0.177082   -0.010933
     21          6           0       -0.651309    0.523882   -0.009163
     22          6           0       -1.800801   -0.163915   -0.012325
     23          6           0       -3.105578    0.529963   -0.009962
     24          6           0       -4.251106   -0.164448   -0.012771
     25          6           0       -5.560014    0.521556   -0.009752
     26          6           0       -6.701245   -0.179931   -0.012113
     27          6           0       -8.014402    0.497850   -0.008412
     28          6           0       -9.151253   -0.210753   -0.010278
     29          6           0      -10.468509    0.458966   -0.005916
     30          6           0      -11.601182   -0.256334   -0.007300
     31          6           0      -12.922128    0.406021   -0.002340
     32          6           0      -14.051110   -0.315119   -0.003309
     33          6           0      -15.375117    0.341057    0.002146
     34          6           0      -16.501140   -0.384712    0.001483
     35          6           0      -17.827430    0.266829    0.007304
     36          6           0      -18.951381   -0.462150    0.006818
     37          6           0      -20.279132    0.186450    0.012867
     38          6           0      -21.401881   -0.544270    0.012445
     39          6           0      -22.729625    0.103269    0.018598
     40          6           0      -23.850669   -0.621677    0.018196
     41          1           0       24.808304   -0.456619    0.009549
     42          1           0       23.897582    1.176098    0.011166
     43          1           0       22.727370   -1.658999    0.007055
     44          1           0       21.418853    1.234163    0.010151
     45          1           0       20.264503   -1.610204    0.005733
     46          1           0       18.966410    1.283862    0.009099
     47          1           0       17.812318   -1.560370    0.004084
     48          1           0       16.514679    1.333842    0.007880
     49          1           0       15.360445   -1.510299    0.002020
     50          1           0       14.062699    1.383899    0.006399
     51          1           0       12.908976   -1.460416   -0.000475
     52          1           0       11.610134    1.433332    0.004620
     53          1           0       10.458204   -1.411675   -0.003340
     54          1           0        9.156640    1.480887    0.002583
     55          1           0        8.008410   -1.365585   -0.006436
     56          1           0        6.701902    1.524774    0.000402
     57          1           0        5.559808   -1.324145   -0.009554
     58          1           0        4.245698    1.562776   -0.001741
     59          1           0        3.112510   -1.289693   -0.012440
     60          1           0        1.787949    1.592438   -0.003619
     61          1           0        0.666506   -1.264679   -0.014819
     62          1           0       -0.671248    1.611320   -0.004982
     63          1           0       -1.778342   -1.251415   -0.016427
     64          1           0       -3.131605    1.617266   -0.005588
     65          1           0       -4.222292   -1.251802   -0.017039
     66          1           0       -5.592658    1.608679   -0.005238
     67          1           0       -6.665703   -1.267086   -0.016506
     68          1           0       -8.053807    1.584749   -0.003799
     69          1           0       -9.109017   -1.297666   -0.014769
     70          1           0      -10.514394    1.545615   -0.001232
     71          1           0      -11.552718   -1.342981   -0.011873
     72          1           0      -12.973786    1.492419    0.002402
     73          1           0      -13.997294   -1.401507   -0.007961
     74          1           0      -15.431477    1.427230    0.006944
     75          1           0      -16.443160   -1.470877   -0.003253
     76          1           0      -17.887183    1.352830    0.012160
     77          1           0      -18.890599   -1.548155    0.001995
     78          1           0      -20.341074    1.272351    0.017782
     79          1           0      -21.340358   -1.630248    0.007543
     80          1           0      -22.803974    1.187435    0.023577
     81          1           0      -23.817992   -1.707257    0.013320
     82          1           0      -24.816405   -0.126701    0.022794
 ---------------------------------------------------------------------
 Rotational constants (GHZ):           3.3340346           0.0047940           0.0047871
 Standard basis: 6-31G(d,p) (6D, 7F)
 There are   810 symmetry adapted cartesian basis functions of A   symmetry.
 There are   810 symmetry adapted basis functions of A   symmetry.
   810 basis functions,  1414 primitive gaussians,   810 cartesian basis functions
   141 alpha electrons      141 beta electrons
       nuclear repulsion energy      2718.6096701309 Hartrees.
 NAtoms=   82 NActive=   82 NUniq=   82 SFac= 1.00D+00 NAtFMM=   60 NAOKFM=T Big=T
 Integral buffers will be    131072 words long.
 Raffenetti 2 integral format.
 Two-electron integral symmetry is turned on.
 One-electron integrals computed using PRISM.
 NBasis=   810 RedAO= T EigKep=  1.07D-03  NBF=   810
 NBsUse=   810 1.00D-06 EigRej= -1.00D+00 NBFU=   810
 ExpMin= 1.61D-01 ExpMax= 3.05D+03 ExpMxC= 4.57D+02 IAcc=3 IRadAn=         5 AccDes= 0.00D+00
 Harris functional with IExCor=  402 and IRadAn=       5 diagonalized for initial guess.
 HarFok:  IExCor=  402 AccDes= 0.00D+00 IRadAn=         5 IDoV= 1 UseB2=F ITyADJ=14
 ICtDFT=  3500011 ScaDFX=  1.000000  1.000000  1.000000  1.000000
 FoFCou: FMM=F IPFlag=           0 FMFlag=      100000 FMFlg1=        2001
         NFxFlg=           0 DoJE=T BraDBF=F KetDBF=T FulRan=T
         wScrn=  0.000000 ICntrl=       500 IOpCl=  0 I1Cent=   200000004 NGrid=           0
         NMat0=    1 NMatS0=      1 NMatT0=    0 NMatD0=    1 NMtDS0=    0 NMtDT0=    0
 Petite list used in FoFCou.
 Requested convergence on RMS density matrix=1.00D-08 within 128 cycles.
 Requested convergence on MAX density matrix=1.00D-06.
 Requested convergence on             energy=1.00D-06.
 No special actions if energy rises.
 Integral accuracy reduced to 1.0D-05 until final iterations.
 Initial convergence to 1.0D-05 achieved.  Increase integral accuracy.
 SCF Done:  E(RB3LYP) =  -1549.34657548     A.U. after   13 cycles
            NFock= 13  Conv=0.56D-08     -V/T= 2.0100

 **********************************************************************

            Population analysis using the SCF Density.

 **********************************************************************

 Orbital symmetries:
       Occupied  (A) (A) (A) (A) (A) (A) (A) (A) (A) (A) (A) (A)
                 (A) (A) (A) (A) (A) (A) (A) (A) (A) (A) (A) (A)
                 (A) (A) (A) (A) (A) (A) (A) (A) (A) (A) (A) (A)
                 (A) (A) (A) (A) (A) (A) (A) (A) (A) (A) (A) (A)
                 (A) (A) (A) (A) (A) (A) (A) (A) (A) (A) (A) (A)
                 (A) (A) (A) (A) (A) (A) (A) (A) (A) (A) (A) (A)
                 (A) (A) (A) (A) (A) (A) (A) (A) (A) (A) (A) (A)
                 (A) (A) (A) (A) (A) (A) (A) (A) (A) (A) (A) (A)
                 (A) (A) (A) (A) (A) (A) (A) (A) (A) (A) (A) (A)
                 (A) (A) (A) (A) (A) (A) (A) (A) (A) (A) (A) (A)
                 (A) (A) (A) (A) (A) (A) (A) (A) (A) (A) (A) (A)
                 (A) (A) (A) (A) (A) (A) (A) (A) (A)
       Virtual   (A) (A) (A) (A) (A) (A) (A) (A) (A) (A) (A) (A)
                 (A) (A) (A) (A) (A) (A) (A) (A) (A) (A) (A) (A)
                 (A) (A) (A) (A) (A) (A) (A) (A) (A) (A) (A) (A)
                 (A) (A) (A) (A) (A) (A) (A) (A) (A) (A) (A) (A)
                 (A) (A) (A) (A) (A) (A) (A) (A) (A) (A) (A) (A)
                 (A) (A) (A) (A) (A) (A) (A) (A) (A) (A) (A) (A)
                 (A) (A) (A) (A) (A) (A) (A) (A) (A) (A) (A) (A)
                 (A) (A) (A) (A) (A) (A) (A) (A) (A) (A) (A) (A)
                 (A) (A) (A) (A) (A) (A) (A) (A) (A) (A) (A) (A)
                 (A) (A) (A) (A) (A) (A) (A) (A) (A) (A) (A) (A)
                 (A) (A) (A) (A) (A) (A) (A) (A) (A) (A) (A) (A)
                 (A) (A) (A) (A) (A) (A) (A) (A) (A) (A) (A) (A)
                 (A) (A) (A) (A) (A) (A) (A) (A) (A) (A) (A) (A)
                 (A) (A) (A) (A) (A) (A) (A) (A) (A) (A) (A) (A)
                 (A) (A) (A) (A) (A) (A) (A) (A) (A) (A) (A) (A)
                 (A) (A) (A) (A) (A) (A) (A) (A) (A) (A) (A) (A)
                 (A) (A) (A) (A) (A) (A) (A) (A) (A) (A) (A) (A)
                 (A) (A) (A) (A) (A) (A) (A) (A) (A) (A) (A) (A)
                 (A) (A) (A) (A) (A) (A) (A) (A) (A) (A) (A) (A)
                 (A) (A) (A) (A) (A) (A) (A) (A) (A) (A) (A) (A)
                 (A) (A) (A) (A) (A) (A) (A) (A) (A) (A) (A) (A)
                 (A) (A) (A) (A) (A) (A) (A) (A) (A) (A) (A) (A)
                 (A) (A) (A) (A) (A) (A) (A) (A) (A) (A) (A) (A)
                 (A) (A) (A) (A) (A) (A) (A) (A) (A) (A) (A) (A)
                 (A) (A) (A) (A) (A) (A) (A) (A) (A) (A) (A) (A)
                 (A) (A) (A) (A) (A) (A) (A) (A) (A) (A) (A) (A)
                 (A) (A) (A) (A) (A) (A) (A) (A) (A) (A) (A) (A)
                 (A) (A) (A) (A) (A) (A) (A) (A) (A) (A) (A) (A)
                 (A) (A) (A) (A) (A) (A) (A) (A) (A) (A) (A) (A)
                 (A) (A) (A) (A) (A) (A) (A) (A) (A) (A) (A) (A)
                 (A) (A) (A) (A) (A) (A) (A) (A) (A) (A) (A) (A)
                 (A) (A) (A) (A) (A) (A) (A) (A) (A) (A) (A) (A)
                 (A) (A) (A) (A) (A) (A) (A) (A) (A) (A) (A) (A)
                 (A) (A) (A) (A) (A) (A) (A) (A) (A) (A) (A) (A)
                 (A) (A) (A) (A) (A) (A) (A) (A) (A) (A) (A) (A)
                 (A) (A) (A) (A) (A) (A) (A) (A) (A) (A) (A) (A)
                 (A) (A) (A) (A) (A) (A) (A) (A) (A) (A) (A) (A)
                 (A) (A) (A) (A) (A) (A) (A) (A) (A) (A) (A) (A)
                 (A) (A) (A) (A) (A) (A) (A) (A) (A) (A) (A) (A)
                 (A) (A) (A) (A) (A) (A) (A) (A) (A) (A) (A) (A)
                 (A) (A) (A) (A) (A) (A) (A) (A) (A) (A) (A) (A)
                 (A) (A) (A) (A) (A) (A) (A) (A) (A) (A) (A) (A)
                 (A) (A) (A) (A) (A) (A) (A) (A) (A) (A) (A) (A)
                 (A) (A) (A) (A) (A) (A) (A) (A) (A) (A) (A) (A)
                 (A) (A) (A) (A) (A) (A) (A) (A) (A) (A) (A) (A)
                 (A) (A) (A) (A) (A) (A) (A) (A) (A) (A) (A) (A)
                 (A) (A) (A) (A) (A) (A) (A) (A) (A) (A) (A) (A)
                 (A) (A) (A) (A) (A) (A) (A) (A) (A) (A) (A) (A)
                 (A) (A) (A) (A) (A) (A) (A) (A) (A) (A) (A) (A)
                 (A) (A) (A) (A) (A) (A) (A) (A) (A) (A) (A) (A)
                 (A) (A) (A) (A) (A) (A) (A) (A) (A) (A) (A) (A)
                 (A) (A) (A) (A) (A) (A) (A) (A) (A) (A) (A) (A)
                 (A) (A) (A) (A) (A) (A) (A) (A) (A) (A) (A) (A)
                 (A) (A) (A) (A) (A) (A) (A) (A) (A) (A) (A) (A)
                 (A) (A) (A) (A) (A) (A) (A) (A) (A) (A) (A) (A)
                 (A) (A) (A) (A) (A) (A) (A) (A) (A)
 The electronic state is 1-A.
 Alpha  occ. eigenvalues --  -10.19144 -10.19124 -10.19114 -10.19103 -10.19094
 Alpha  occ. eigenvalues --  -10.19090 -10.19089 -10.19082 -10.19079 -10.19074
 Alpha  occ. eigenvalues --  -10.19072 -10.19068 -10.19067 -10.19063 -10.19061
 Alpha  occ. eigenvalues --  -10.19058 -10.19054 -10.19049 -10.19044 -10.19038
 Alpha  occ. eigenvalues --  -10.19021 -10.19011 -10.19004 -10.18996 -10.18995
 Alpha  occ. eigenvalues --  -10.18988 -10.18986 -10.18982 -10.18980 -10.18977
 Alpha  occ. eigenvalues --  -10.18974 -10.18970 -10.18966 -10.18962 -10.18957
 Alpha  occ. eigenvalues --  -10.18952 -10.18945 -10.18920 -10.17926 -10.17903
 Alpha  occ. eigenvalues --   -0.82951  -0.82838  -0.82633  -0.82347  -0.81981
 Alpha  occ. eigenvalues --   -0.81536  -0.81014  -0.80415  -0.79741  -0.78993
 Alpha  occ. eigenvalues --   -0.78173  -0.77283  -0.76326  -0.75307  -0.74234
 Alpha  occ. eigenvalues --   -0.73116  -0.71975  -0.70849  -0.69818  -0.69023
 Alpha  occ. eigenvalues --   -0.63776  -0.62893  -0.61660  -0.60261  -0.58791
 Alpha  occ. eigenvalues --   -0.57329  -0.57071  -0.56973  -0.56794  -0.56555
 Alpha  occ. eigenvalues --   -0.56245  -0.56001  -0.55841  -0.55490  -0.55045
 Alpha  occ. eigenvalues --   -0.54864  -0.54570  -0.54291  -0.54065  -0.53984
 Alpha  occ. eigenvalues --   -0.48639  -0.48501  -0.48242  -0.47959  -0.47360
 Alpha  occ. eigenvalues --   -0.47249  -0.46450  -0.46136  -0.45585  -0.45008
 Alpha  occ. eigenvalues --   -0.44482  -0.44325  -0.43079  -0.42285  -0.41642
 Alpha  occ. eigenvalues --   -0.41612  -0.40823  -0.40408  -0.39989  -0.39509
 Alpha  occ. eigenvalues --   -0.39076  -0.38818  -0.38307  -0.38231  -0.37806
 Alpha  occ. eigenvalues --   -0.37738  -0.37525  -0.37413  -0.37330  -0.37303
 Alpha  occ. eigenvalues --   -0.36973  -0.36682  -0.36422  -0.36162  -0.35855
 Alpha  occ. eigenvalues --   -0.35444  -0.35313  -0.35163  -0.34896  -0.34895
 Alpha  occ. eigenvalues --   -0.34523  -0.34251  -0.34045  -0.33619  -0.33464
 Alpha  occ. eigenvalues --   -0.33101  -0.32780  -0.32751  -0.31994  -0.31108
 Alpha  occ. eigenvalues --   -0.30122  -0.29039  -0.27860  -0.26591  -0.25235
 Alpha  occ. eigenvalues --   -0.23804  -0.22311  -0.20785  -0.19281  -0.17909
 Alpha  occ. eigenvalues --   -0.16863
 Alpha virt. eigenvalues --   -0.07648  -0.06583  -0.05102  -0.03436  -0.01709
 Alpha virt. eigenvalues --    0.00008   0.01668   0.03232   0.04670   0.05957
 Alpha virt. eigenvalues --    0.07069   0.07993   0.08177   0.08361   0.08673
 Alpha virt. eigenvalues --    0.08723   0.09097   0.09261   0.09625   0.09626
 Alpha virt. eigenvalues --    0.09842   0.09939   0.09957   0.09983   0.09988
 Alpha virt. eigenvalues --    0.10250   0.10966   0.11761   0.12535   0.12626
 Alpha virt. eigenvalues --    0.12736   0.13542   0.13769   0.13799   0.13971
 Alpha virt. eigenvalues --    0.14027   0.14206   0.14278   0.14515   0.14631
 Alpha virt. eigenvalues --    0.14656   0.14929   0.14961   0.15258   0.15375
 Alpha virt. eigenvalues --    0.15502   0.15659   0.15773   0.15826   0.16127
 Alpha virt. eigenvalues --    0.16837   0.16852   0.17513   0.17916   0.18944
 Alpha virt. eigenvalues --    0.19717   0.19863   0.20034   0.20690   0.20918
 Alpha virt. eigenvalues --    0.21269   0.21295   0.24784   0.25516   0.26654
 Alpha virt. eigenvalues --    0.28086   0.29663   0.30427   0.30465   0.31048
 Alpha virt. eigenvalues --    0.31278   0.31386   0.32350   0.32656   0.33086
 Alpha virt. eigenvalues --    0.34053   0.34209   0.34562   0.35276   0.35602
 Alpha virt. eigenvalues --    0.36127   0.36203   0.36751   0.36856   0.36954
 Alpha virt. eigenvalues --    0.37152   0.37294   0.37922   0.38885   0.40654
 Alpha virt. eigenvalues --    0.41331   0.41358   0.41430   0.41705   0.41985
 Alpha virt. eigenvalues --    0.42248   0.42443   0.42715   0.43146   0.45281
 Alpha virt. eigenvalues --    0.45472   0.47595   0.47922   0.50384   0.51118
 Alpha virt. eigenvalues --    0.51640   0.51741   0.51928   0.52194   0.52543
 Alpha virt. eigenvalues --    0.52714   0.52977   0.53496   0.53600   0.54100
 Alpha virt. eigenvalues --    0.54787   0.54933   0.55555   0.55560   0.56399
 Alpha virt. eigenvalues --    0.56582   0.56994   0.57023   0.57098   0.57310
 Alpha virt. eigenvalues --    0.57725   0.58289   0.58293   0.58704   0.58764
 Alpha virt. eigenvalues --    0.58772   0.58777   0.58880   0.59020   0.59153
 Alpha virt. eigenvalues --    0.59220   0.59384   0.59386   0.59619   0.59979
 Alpha virt. eigenvalues --    0.60124   0.60196   0.60595   0.60652   0.60797
 Alpha virt. eigenvalues --    0.61252   0.61730   0.61751   0.61917   0.62334
 Alpha virt. eigenvalues --    0.62584   0.63361   0.63539   0.63565   0.63607
 Alpha virt. eigenvalues --    0.64618   0.64628   0.64949   0.65504   0.65573
 Alpha virt. eigenvalues --    0.65687   0.66153   0.66455   0.66710   0.66800
 Alpha virt. eigenvalues --    0.67517   0.67734   0.68570   0.68580   0.69221
 Alpha virt. eigenvalues --    0.69653   0.69815   0.69848   0.71076   0.71247
 Alpha virt. eigenvalues --    0.72938   0.72985   0.74542   0.74630   0.75846
 Alpha virt. eigenvalues --    0.75911   0.76714   0.76734   0.78597   0.78645
 Alpha virt. eigenvalues --    0.78768   0.79000   0.79368   0.79888   0.80556
 Alpha virt. eigenvalues --    0.81349   0.82220   0.83039   0.83550   0.83951
 Alpha virt. eigenvalues --    0.84487   0.84553   0.84677   0.84678   0.84851
 Alpha virt. eigenvalues --    0.85068   0.85324   0.85608   0.85652   0.85903
 Alpha virt. eigenvalues --    0.86188   0.86441   0.86619   0.86660   0.86890
 Alpha virt. eigenvalues --    0.86989   0.87184   0.87379   0.87583   0.87648
 Alpha virt. eigenvalues --    0.87798   0.87901   0.87994   0.88524   0.89174
 Alpha virt. eigenvalues --    0.89630   0.89910   0.90054   0.91070   0.91078
 Alpha virt. eigenvalues --    0.91372   0.91475   0.91788   0.92195   0.92329
 Alpha virt. eigenvalues --    0.92913   0.93530   0.93938   0.95283   0.95286
 Alpha virt. eigenvalues --    0.96842   0.97593   0.98476   0.99723   1.00629
 Alpha virt. eigenvalues --    1.02440   1.02441   1.02919   1.02934   1.03673
 Alpha virt. eigenvalues --    1.03707   1.03965   1.04610   1.04705   1.05573
 Alpha virt. eigenvalues --    1.05767   1.06131   1.06342   1.06563   1.07224
 Alpha virt. eigenvalues --    1.07556   1.08260   1.09205   1.09386   1.10051
 Alpha virt. eigenvalues --    1.10251   1.10638   1.11448   1.12311   1.13717
 Alpha virt. eigenvalues --    1.13993   1.15750   1.16173   1.16892   1.18152
 Alpha virt. eigenvalues --    1.18212   1.20598   1.20875   1.23107   1.23641
 Alpha virt. eigenvalues --    1.25689   1.26110   1.28038   1.28772   1.29406
 Alpha virt. eigenvalues --    1.29410   1.29572   1.29689   1.29698   1.30151
 Alpha virt. eigenvalues --    1.30155   1.30655   1.30691   1.30747   1.30792
 Alpha virt. eigenvalues --    1.31221   1.31381   1.31444   1.31643   1.31837
 Alpha virt. eigenvalues --    1.32172   1.32529   1.32668   1.32787   1.32796
 Alpha virt. eigenvalues --    1.33345   1.33349   1.33374   1.33764   1.33766
 Alpha virt. eigenvalues --    1.33876   1.34285   1.34598   1.34817   1.34958
 Alpha virt. eigenvalues --    1.35743   1.36220   1.36895   1.37261   1.37673
 Alpha virt. eigenvalues --    1.38517   1.39409   1.40342   1.41308   1.41894
 Alpha virt. eigenvalues --    1.42305   1.43324   1.44358   1.45393   1.46168
 Alpha virt. eigenvalues --    1.46417   1.47411   1.48359   1.49240   1.49470
 Alpha virt. eigenvalues --    1.50036   1.50196   1.50639   1.50725   1.51288
 Alpha virt. eigenvalues --    1.51710   1.51855   1.51982   1.52042   1.52138
 Alpha virt. eigenvalues --    1.53416   1.53629   1.54699   1.54746   1.76361
 Alpha virt. eigenvalues --    1.76430   1.76573   1.76576   1.76583   1.76637
 Alpha virt. eigenvalues --    1.76704   1.76728   1.76749   1.76980   1.77036
 Alpha virt. eigenvalues --    1.77362   1.77379   1.77807   1.77874   1.78316
 Alpha virt. eigenvalues --    1.78389   1.78762   1.78787   1.82141   1.82662
 Alpha virt. eigenvalues --    1.83528   1.84708   1.86168   1.86251   1.86271
 Alpha virt. eigenvalues --    1.87869   1.89766   1.91200   1.91809   1.91825
 Alpha virt. eigenvalues --    1.91967   1.91996   1.92415   1.92577   1.92748
 Alpha virt. eigenvalues --    1.93120   1.93515   1.93858   1.93946   1.93988
 Alpha virt. eigenvalues --    1.94600   1.94937   1.95071   1.95490   1.95929
 Alpha virt. eigenvalues --    1.96125   1.96311   1.96767   1.96991   1.98295
 Alpha virt. eigenvalues --    1.98300   1.98326   2.00412   2.02441   2.03031
 Alpha virt. eigenvalues --    2.03518   2.04357   2.04398   2.05892   2.06140
 Alpha virt. eigenvalues --    2.07640   2.07643   2.07774   2.07991   2.09024
 Alpha virt. eigenvalues --    2.09132   2.09233   2.10229   2.10465   2.10830
 Alpha virt. eigenvalues --    2.11114   2.11363   2.12309   2.12717   2.13976
 Alpha virt. eigenvalues --    2.15227   2.15894   2.16490   2.17663   2.17729
 Alpha virt. eigenvalues --    2.17772   2.17849   2.18516   2.18692   2.19626
 Alpha virt. eigenvalues --    2.19826   2.20055   2.20175   2.20676   2.21420
 Alpha virt. eigenvalues --    2.21784   2.22361   2.22929   2.23265   2.23791
 Alpha virt. eigenvalues --    2.24104   2.24132   2.24190   2.24559   2.25307
 Alpha virt. eigenvalues --    2.26539   2.27266   2.27803   2.29100   2.30428
 Alpha virt. eigenvalues --    2.31245   2.31782   2.33143   2.34481   2.35635
 Alpha virt. eigenvalues --    2.35734   2.36809   2.37600   2.38063   2.40178
 Alpha virt. eigenvalues --    2.41592   2.41613   2.44338   2.44392   2.44643
 Alpha virt. eigenvalues --    2.44726   2.44906   2.45230   2.45831   2.46624
 Alpha virt. eigenvalues --    2.47459   2.48114   2.48130   2.48300   2.48561
 Alpha virt. eigenvalues --    2.48734   2.49143   2.49521   2.49731   2.50107
 Alpha virt. eigenvalues --    2.50553   2.50724   2.51251   2.51399   2.51569
 Alpha virt. eigenvalues --    2.51888   2.52336   2.52504   2.52588   2.52894
 Alpha virt. eigenvalues --    2.53094   2.53709   2.53999   2.54171   2.54921
 Alpha virt. eigenvalues --    2.55047   2.55207   2.55293   2.55828   2.56697
 Alpha virt. eigenvalues --    2.56748   2.57581   2.58182   2.58591   2.58651
 Alpha virt. eigenvalues --    2.59052   2.59384   2.60470   2.61081   2.61196
 Alpha virt. eigenvalues --    2.61894   2.62319   2.62974   2.62982   2.63948
 Alpha virt. eigenvalues --    2.64080   2.64705   2.65040   2.65644   2.65997
 Alpha virt. eigenvalues --    2.67060   2.67189   2.67523   2.67803   2.68443
 Alpha virt. eigenvalues --    2.68697   2.69461   2.69642   2.69899   2.70210
 Alpha virt. eigenvalues --    2.70330   2.70678   2.70740   2.70858   2.71081
 Alpha virt. eigenvalues --    2.71184   2.71994   2.72166   2.72710   2.72754
 Alpha virt. eigenvalues --    2.73891   2.75243   2.75699   2.77467   2.77727
 Alpha virt. eigenvalues --    2.78290   2.80150   2.80601   2.82277   2.82541
 Alpha virt. eigenvalues --    2.84546   2.84694   2.85201   2.86443   2.87134
 Alpha virt. eigenvalues --    2.87549   2.88147   2.89653   2.90967   2.91083
 Alpha virt. eigenvalues --    2.91190   2.91327   2.91559   2.91679   2.92070
 Alpha virt. eigenvalues --    2.92267   2.92413   2.92660   2.93369   2.93410
 Alpha virt. eigenvalues --    2.93469   2.93775   2.94667   2.95108   2.95799
 Alpha virt. eigenvalues --    2.96391   2.96875   2.97549   2.97873   2.98538
 Alpha virt. eigenvalues --    2.98754   2.99319   2.99469   2.99849   2.99969
 Alpha virt. eigenvalues --    3.00182   3.00288   3.28030   3.28048   3.35178
 Alpha virt. eigenvalues --    3.35260   3.35417   3.35655   3.35988   3.36435
 Alpha virt. eigenvalues --    3.37013   3.37728   3.38558   3.39465   3.40421
 Alpha virt. eigenvalues --    3.41434   3.42544   3.43796   3.45223   3.46839
 Alpha virt. eigenvalues --    3.48635   3.50579   3.51080   3.52057   3.52614
 Alpha virt. eigenvalues --    3.53615   3.54480   3.55586   3.57809   3.58661
 Alpha virt. eigenvalues --    3.60125   3.60404   3.62379   3.62386   3.64292
 Alpha virt. eigenvalues --    3.64429   3.65971   3.66155   3.67316   3.67458
 Alpha virt. eigenvalues --    3.68223   3.68274   3.71062   3.71080   4.13732
 Alpha virt. eigenvalues --    4.13758   4.13822   4.13890   4.13954   4.14014
 Alpha virt. eigenvalues --    4.14083   4.14179   4.14325   4.14538   4.14833
 Alpha virt. eigenvalues --    4.15227   4.15735   4.16372   4.17152   4.18087
 Alpha virt. eigenvalues --    4.19186   4.20441   4.21797   4.25294   4.25748
 Alpha virt. eigenvalues --    4.28159   4.30445   4.32976   4.35720   4.38657
 Alpha virt. eigenvalues --    4.41759   4.44999   4.48339   4.51737   4.55143
 Alpha virt. eigenvalues --    4.58502   4.61750   4.64823   4.67655   4.70179
 Alpha virt. eigenvalues --    4.72337   4.74075   4.75350   4.76138
          Condensed to atoms (all electrons):
 Mulliken charges:
               1
     1  C   -0.251964
     2  C   -0.033557
     3  C   -0.077896
     4  C   -0.076656
     5  C   -0.080865
     6  C   -0.078871
     7  C   -0.079998
     8  C   -0.079521
     9  C   -0.079920
    10  C   -0.079655
    11  C   -0.079886
    12  C   -0.079734
    13  C   -0.079852
    14  C   -0.079795
    15  C   -0.079814
    16  C   -0.079850
    17  C   -0.079772
    18  C   -0.079898
    19  C   -0.079727
    20  C   -0.079937
    21  C   -0.079681
    22  C   -0.079967
    23  C   -0.079637
    24  C   -0.079985
    25  C   -0.079597
    26  C   -0.079992
    27  C   -0.079560
    28  C   -0.079987
    29  C   -0.079527
    30  C   -0.079976
    31  C   -0.079484
    32  C   -0.079963
    33  C   -0.079391
    34  C   -0.080000
    35  C   -0.078783
    36  C   -0.080832
    37  C   -0.076608
    38  C   -0.077841
    39  C   -0.033562
    40  C   -0.251880
    41  H    0.095324
    42  H    0.095490
    43  H    0.083682
    44  H    0.081565
    45  H    0.080926
    46  H    0.080513
    47  H    0.080173
    48  H    0.080109
    49  H    0.079992
    50  H    0.079964
    51  H    0.079905
    52  H    0.079899
    53  H    0.079850
    54  H    0.079869
    55  H    0.079809
    56  H    0.079859
    57  H    0.079779
    58  H    0.079864
    59  H    0.079759
    60  H    0.079879
    61  H    0.079749
    62  H    0.079901
    63  H    0.079750
    64  H    0.079929
    65  H    0.079764
    66  H    0.079959
    67  H    0.079790
    68  H    0.079991
    69  H    0.079831
    70  H    0.080025
    71  H    0.079893
    72  H    0.080068
    73  H    0.079986
    74  H    0.080136
    75  H    0.080155
    76  H    0.080294
    77  H    0.080576
    78  H    0.081024
    79  H    0.081638
    80  H    0.083763
    81  H    0.095564
    82  H    0.095426
 Sum of Mulliken charges =  -0.00000
 Mulliken charges with hydrogens summed into heavy atoms:
               1
     1  C   -0.061150
     2  C    0.050125
     3  C    0.003669
     4  C    0.004270
     5  C   -0.000352
     6  C    0.001302
     7  C    0.000111
     8  C    0.000471
     9  C    0.000045
    10  C    0.000250
    11  C    0.000013
    12  C    0.000115
    13  C    0.000017
    14  C    0.000014
    15  C    0.000045
    16  C   -0.000070
    17  C    0.000092
    18  C   -0.000138
    19  C    0.000152
    20  C   -0.000188
    21  C    0.000220
    22  C   -0.000217
    23  C    0.000291
    24  C   -0.000222
    25  C    0.000362
    26  C   -0.000202
    27  C    0.000430
    28  C   -0.000156
    29  C    0.000498
    30  C   -0.000084
    31  C    0.000584
    32  C    0.000023
    33  C    0.000745
    34  C    0.000154
    35  C    0.001511
    36  C   -0.000256
    37  C    0.004417
    38  C    0.003797
    39  C    0.050200
    40  C   -0.060890
 Electronic spatial extent (au):  <R**2>=         205545.5548
 Charge=             -0.0000 electrons
 Dipole moment (field-independent basis, Debye):
    X=             -0.1486    Y=              0.0143    Z=              0.0021  Tot=              0.1493
 Quadrupole moment (field-independent basis, Debye-Ang):
   XX=           -235.1540   YY=           -208.8518   ZZ=           -259.7004
   XY=             -3.2618   XZ=             -0.0325   YZ=              0.1660
 Traceless Quadrupole moment (field-independent basis, Debye-Ang):
   XX=             -0.5853   YY=             25.7169   ZZ=            -25.1317
   XY=             -3.2618   XZ=             -0.0325   YZ=              0.1660
 Octapole moment (field-independent basis, Debye-Ang**2):
  XXX=            -55.9836  YYY=              0.2968  ZZZ=             -0.0091  XYY=              1.6339
  XXY=             12.9688  XXZ=              1.3048  XZZ=             -0.1253  YZZ=              0.0765
  YYZ=              0.0038  XYZ=             -0.8218
 Hexadecapole moment (field-independent basis, Debye-Ang**3):
 XXXX=        -281260.3717 YYYY=           -705.5847 ZZZZ=           -269.4601 XXXY=          -1957.2815
 XXXZ=            -25.1350 YYYX=             -2.9114 YYYZ=              0.3445 ZZZX=              0.0659
 ZZZY=              0.1437 XXYY=         -42701.7445 XXZZ=         -52954.5914 YYZZ=           -183.2846
 XXYZ=             31.2286 YYXZ=              0.2311 ZZXY=             -2.8036
 N-N= 2.718609670131D+03 E-N=-9.021266338875D+03  KE= 1.534014703154D+03
 Calling FoFJK, ICntrl=      2127 FMM=T ISym2X=0 I1Cent= 0 IOpClX= 0 NMat=1 NMatS=1 NMatT=0.
 ***** Axes restored to original set *****
 -------------------------------------------------------------------
 Center     Atomic                   Forces (Hartrees/Bohr)
 Number     Number              X              Y              Z
 -------------------------------------------------------------------
      1        6          -0.008400649    0.004067130   -0.000184886
      2        6           0.010754842   -0.022492712    0.001232213
      3        6          -0.021260900    0.023788285   -0.001244731
      4        6           0.024716495   -0.025838540    0.001344201
      5        6          -0.026828652    0.025019202   -0.001283044
      6        6           0.027625805   -0.025670356    0.001318668
      7        6          -0.028345416    0.025366719   -0.001294408
      8        6           0.028617949   -0.025597404    0.001310204
      9        6          -0.028889599    0.025478886   -0.001298795
     10        6           0.029004657   -0.025570748    0.001308912
     11        6          -0.029119411    0.025511718   -0.001301856
     12        6           0.029187037   -0.025543187    0.001310252
     13        6          -0.029238869    0.025500965   -0.001304975
     14        6           0.029301105   -0.025498634    0.001312973
     15        6          -0.029325247    0.025455008   -0.001308588
     16        6           0.029400658   -0.025428322    0.001316592
     17        6          -0.029410534    0.025375274   -0.001312861
     18        6           0.029507286   -0.025328102    0.001320958
     19        6          -0.029508024    0.025263159   -0.001317867
     20        6           0.029627560   -0.025197710    0.001325928
     21        6          -0.029621527    0.025121015   -0.001323432
     22        6           0.029760569   -0.025039634    0.001331267
     23        6          -0.029748061    0.024954359   -0.001329399
     24        6           0.029899205   -0.024859938    0.001336791
     25        6          -0.029878444    0.024771591   -0.001335579
     26        6           0.030030231   -0.024667136    0.001342222
     27        6          -0.029996679    0.024584032   -0.001341748
     28        6           0.030132349   -0.024470722    0.001347172
     29        6          -0.030073566    0.024405670   -0.001347766
     30        6           0.030167701   -0.024278791    0.001351194
     31        6          -0.030049916    0.024255004   -0.001353895
     32        6           0.030055363   -0.024092789    0.001353604
     33        6          -0.029787450    0.024159574   -0.001361365
     34        6           0.029589145   -0.023890612    0.001352953
     35        6          -0.028887687    0.024188899   -0.001375095
     36        6           0.028106031   -0.023550895    0.001343516
     37        6          -0.026046515    0.024459764   -0.001406246
     38        6           0.022503131   -0.022588308    0.001305831
     39        6          -0.011949376    0.021859560   -0.001295129
     40        6           0.008589286   -0.003596031    0.000191986
     41        1          -0.002741154   -0.003535606    0.000219468
     42        1          -0.002397310    0.000475117   -0.000012679
     43        1           0.005365030    0.000216005   -0.000044103
     44        1          -0.003411660    0.000565019   -0.000011611
     45        1           0.003194172   -0.000408278    0.000004456
     46        1          -0.003198903    0.000476992   -0.000007476
     47        1           0.003206012   -0.000425879    0.000005138
     48        1          -0.003210027    0.000458117   -0.000006006
     49        1           0.003208160   -0.000441214    0.000005607
     50        1          -0.003213141    0.000448594   -0.000005213
     51        1           0.003211734   -0.000446950    0.000005380
     52        1          -0.003217091    0.000441695   -0.000004772
     53        1           0.003215229   -0.000448635    0.000004863
     54        1          -0.003220857    0.000434169   -0.000004593
     55        1           0.003218166   -0.000447205    0.000004224
     56        1          -0.003224038    0.000424502   -0.000004655
     57        1           0.003220186   -0.000442451    0.000003567
     58        1          -0.003226267    0.000412091   -0.000004930
     59        1           0.003221070   -0.000434314    0.000002986
     60        1          -0.003227235    0.000396777   -0.000005370
     61        1           0.003220710   -0.000422634    0.000002552
     62        1          -0.003226777    0.000379106   -0.000005940
     63        1           0.003219102   -0.000407719    0.000002343
     64        1          -0.003224866    0.000359650   -0.000006546
     65        1           0.003216418   -0.000390092    0.000002384
     66        1          -0.003221706    0.000339482   -0.000007097
     67        1           0.003213038   -0.000370745    0.000002682
     68        1          -0.003217629    0.000319590   -0.000007491
     69        1           0.003209461   -0.000350974    0.000003225
     70        1          -0.003213149    0.000300847   -0.000007652
     71        1           0.003206302   -0.000332609    0.000003976
     72        1          -0.003208926    0.000283659   -0.000007504
     73        1           0.003204245   -0.000318153    0.000004939
     74        1          -0.003205728    0.000267122   -0.000006953
     75        1           0.003204717   -0.000311495    0.000006189
     76        1          -0.003205131    0.000245133   -0.000005681
     77        1           0.003199462   -0.000320088    0.000008073
     78        1          -0.003196814    0.000224463   -0.000004268
     79        1           0.003423482   -0.000391491    0.000012637
     80        1          -0.005336633   -0.000519516    0.000048076
     81        1           0.002414009   -0.000357190    0.000014172
     82        1           0.002544453    0.003669865   -0.000232170
 -------------------------------------------------------------------
 Cartesian Forces:  Max     0.030167701 RMS     0.014820504

 GradGradGradGradGradGradGradGradGradGradGradGradGradGradGradGradGradGrad
 Berny optimization.
 FormGI is forming the generalized inverse of G from B-inverse, IUseBI=4.
 Internal  Forces:  Max     0.022311990 RMS     0.008432109
 Search for a local minimum.
 Step number   1 out of a maximum of  367
 All quantities printed in internal units (Hartrees-Bohrs-Radians)
 Mixed Optimization -- RFO/linear search
 Second derivative matrix not updated -- first step.
 ITU=  0
     Eigenvalues ---    0.01059   0.01059   0.01059   0.01059   0.01059
     Eigenvalues ---    0.01060   0.01060   0.01060   0.01060   0.01060
     Eigenvalues ---    0.01060   0.01060   0.01060   0.01061   0.01061
     Eigenvalues ---    0.01061   0.01061   0.01066   0.01067   0.01978
     Eigenvalues ---    0.01978   0.01978   0.01978   0.01978   0.01978
     Eigenvalues ---    0.01978   0.01978   0.01978   0.01978   0.01978
     Eigenvalues ---    0.01978   0.01978   0.01978   0.01978   0.01978
     Eigenvalues ---    0.01978   0.01978   0.01978   0.01978   0.01979
     Eigenvalues ---    0.01979   0.01979   0.01979   0.01979   0.01979
     Eigenvalues ---    0.01979   0.01979   0.01979   0.01979   0.01979
     Eigenvalues ---    0.01979   0.01979   0.01979   0.01982   0.01983
     Eigenvalues ---    0.01999   0.01999   0.02887   0.02887   0.02887
     Eigenvalues ---    0.02887   0.02888   0.02888   0.02888   0.02888
     Eigenvalues ---    0.02888   0.02888   0.02888   0.02888   0.02888
     Eigenvalues ---    0.02888   0.02888   0.02888   0.02889   0.02889
     Eigenvalues ---    0.02948   0.02948   0.02949   0.02949   0.16000
     Eigenvalues ---    0.16000   0.16000   0.16000   0.16000   0.16000
     Eigenvalues ---    0.16000   0.16000   0.16000   0.16000   0.16000
     Eigenvalues ---    0.16000   0.16000   0.16000   0.16000   0.16000
     Eigenvalues ---    0.16000   0.16000   0.16000   0.16000   0.16000
     Eigenvalues ---    0.16000   0.16000   0.16000   0.16000   0.16000
     Eigenvalues ---    0.16000   0.16000   0.16000   0.16000   0.16000
     Eigenvalues ---    0.16000   0.16000   0.16000   0.16000   0.16000
     Eigenvalues ---    0.16000   0.16000   0.16000   0.16000   0.16000
     Eigenvalues ---    0.16000   0.22000   0.22000   0.22000   0.22000
     Eigenvalues ---    0.22000   0.22000   0.22000   0.22000   0.22000
     Eigenvalues ---    0.22000   0.22000   0.22000   0.22000   0.22000
     Eigenvalues ---    0.22000   0.22000   0.22000   0.22000   0.22000
     Eigenvalues ---    0.22000   0.22000   0.22000   0.22000   0.22000
     Eigenvalues ---    0.22000   0.22000   0.22000   0.22000   0.22000
     Eigenvalues ---    0.22000   0.22000   0.22000   0.22000   0.22000
     Eigenvalues ---    0.22000   0.22000   0.22000   0.22000   0.34819
     Eigenvalues ---    0.34819   0.34819   0.34820   0.34820   0.34822
     Eigenvalues ---    0.34822   0.34823   0.34824   0.34824   0.34824
     Eigenvalues ---    0.34827   0.34830   0.34833   0.34833   0.34834
     Eigenvalues ---    0.34835   0.34881   0.34887   0.35075   0.35075
     Eigenvalues ---    0.35075   0.35075   0.35075   0.35076   0.35076
     Eigenvalues ---    0.35076   0.35077   0.35077   0.35078   0.35078
     Eigenvalues ---    0.35079   0.35079   0.35079   0.35080   0.35080
     Eigenvalues ---    0.35081   0.35081   0.35082   0.35082   0.35082
     Eigenvalues ---    0.35083   0.35083   0.35084   0.35085   0.35085
     Eigenvalues ---    0.35086   0.35086   0.35087   0.35087   0.35088
     Eigenvalues ---    0.35088   0.35089   0.35089   0.35089   0.35192
     Eigenvalues ---    0.35194   0.35269   0.35272   0.35372   0.35373
     Eigenvalues ---    0.57282   0.57283   0.57285   0.57288   0.57293
     Eigenvalues ---    0.57295   0.57297   0.57297   0.57300   0.57301
     Eigenvalues ---    0.57303   0.57305   0.57305   0.57307   0.57307
     Eigenvalues ---    0.57307   0.57309   0.57309   0.58335   0.58341
 RFO step:  Lambda=-6.56612202D-02 EMin= 1.05916674D-02
 Linear search not attempted -- first point.
 Maximum step size (   0.300) exceeded in Quadratic search.
    -- Step size scaled by   0.688
 Iteration  1 RMS(Cart)=  0.10471106 RMS(Int)=  0.00028327
 Iteration  2 RMS(Cart)=  0.00154175 RMS(Int)=  0.00000011
 Iteration  3 RMS(Cart)=  0.00000024 RMS(Int)=  0.00000011
 Variable       Old X    -DE/DX   Delta X   Delta X   Delta X     New X
                                 (Linear)    (Quad)   (Total)
    R1        2.52278   0.01190   0.00000   0.01261   0.01261   2.53540
    R2        2.05076   0.00018   0.00000   0.00029   0.00029   2.05105
[...]
 024,0.00108220,0.00514303,-0.00000005,0.00000001,0.00000012,0.00000002
 ,0.,0.00000013,0.00000001,0.00000007,0.00000012,0.,0.00000003,0.000000
 11,0.,0.00000013,0.00000008,0.,0.,0.00000011,0.,0.00000006,0.00000010,
 0.,0.00000003,0.00000006,0.,0.00000009,0.,0.,0.00000002,-0.00000002,0.
 ,0.00000008,-0.00000002,0.,0.00000005,0.,0.,0.00000011,0.,0.,0.0000000
 3,0.,0.,0.00000012,0.,0.,0.00000005,0.00000002,0.,0.00000013,0.0000000
 2,0.,0.00000006,0.00000004,0.,0.00000018,0.00000004,0.,0.00000004,0.00
 000006,0.,0.00000024,0.00000007,0.,0.00000009,0.00000010,-0.00000001,0
 .00000023,0.00000012,0.00000001,0.00000011,0.00000017,-0.00000002,0.00
 000028,0.00000019,0.,0.00000011,0.00000028,-0.00000002,0.00000034,0.00
 000030,0.,0.00000013,0.00000045,-0.00000003,0.00000041,0.00000050,0.,0
 .00000018,0.00000086,-0.00000004,0.00000054,0.00000093,-0.00000002,0.0
 0000022,0.00000155,-0.00000003,0.00000065,0.00000118,-0.00000012,0.000
 00030,0.00000418,0.00000009,0.00000105,0.00000538,-0.00000193,0.000000
 46,0.00001069,0.00001555,0.00000205,0.00010770,-0.00005891,-0.00002251
 ,0.00022129,-0.00011149,0.00023920,0.00365494,-0.00215564,-0.01913666,
 0.02845929,0.00000075,-0.00000047,0.00000003,-0.00000026,0.00000111,-0
 .00000007,0.00000024,-0.00000093,0.00000005,-0.00000013,0.00000118,-0.
 00000007,0.00000016,-0.00000090,0.00000005,-0.00000005,0.00000120,-0.0
 0000007,0.00000010,-0.00000093,0.00000005,-0.00000013,0.00000132,-0.00
 000008,0.00000019,-0.00000103,0.00000006,-0.00000012,0.00000141,-0.000
 00008,0.00000021,-0.00000108,0.00000006,-0.00000015,0.00000153,-0.0000
 0009,0.00000024,-0.00000115,0.00000007,-0.00000017,0.00000167,-0.00000
 010,0.00000028,-0.00000123,0.00000007,-0.00000020,0.00000185,-0.000000
 11,0.00000035,-0.00000134,0.00000008,-0.00000027,0.00000205,-0.0000001
 2,0.00000044,-0.00000148,0.00000009,-0.00000037,0.00000230,-0.00000014
 ,0.00000059,-0.00000164,0.00000010,-0.00000052,0.00000259,-0.00000015,
 0.00000081,-0.00000182,0.00000010,-0.00000077,0.00000294,-0.00000017,0
 .00000115,-0.00000203,0.00000011,-0.00000115,0.00000333,-0.00000020,0.
 00000166,-0.00000226,0.00000013,-0.00000178,0.00000376,-0.00000021,0.0
 0000251,-0.00000249,0.00000013,-0.00000282,0.00000415,-0.00000026,0.00
 000386,-0.00000272,0.00000014,-0.00000407,0.00000437,-0.00000011,0.000
 00631,-0.00000248,0.00000006,-0.00000526,0.00000240,-0.00000069,0.0000
 2665,0.00000112,0.,0.00003478,0.00007588,-0.00000294,-0.00013473,0.000
 19966,-0.00001156,0.00178536,-0.00182291,0.00005794,0.00019597,-0.0307
 6281,0.00186084,-0.06480282,-0.03742891,0.00240944,0.00000009,0.,0.,-0
 .00000003,0.,0.,-0.00000003,-0.00000020,0.00000001,-0.00000001,-0.0000
 0003,0.,-0.00000001,-0.00000025,0.00000002,-0.00000001,-0.00000005,0.,
 0.,-0.00000026,0.00000002,-0.00000002,-0.00000006,0.,0.,-0.00000026,0.
 00000002,-0.00000001,-0.00000009,0.,0.,-0.00000028,0.00000002,-0.00000
 001,-0.00000010,0.,0.,-0.00000032,0.00000002,-0.00000001,-0.00000012,0
 .,0.,-0.00000036,0.00000002,-0.00000001,-0.00000014,0.,0.,-0.00000041,
 0.00000002,-0.00000002,-0.00000017,0.00000001,0.00000001,-0.00000047,0
 .00000003,-0.00000002,-0.00000020,0.00000001,0.00000001,-0.00000053,0.
 00000003,-0.00000002,-0.00000023,0.00000001,0.00000002,-0.00000060,0.0
 0000004,-0.00000002,-0.00000027,0.00000002,0.00000001,-0.00000069,0.00
 000004,-0.00000002,-0.00000032,0.00000002,0.,-0.00000077,0.00000005,0.
 ,-0.00000036,0.00000002,-0.00000002,-0.00000085,0.00000005,0.00000005,
 -0.00000038,0.00000002,-0.00000010,-0.00000088,0.00000006,0.00000017,-
 0.00000029,0.00000003,-0.00000039,-0.00000064,0.00000005,0.00000127,0.
 00000030,-0.00000007,-0.00000320,0.00000084,0.,0.00001027,0.00000308,-
 0.00000015,-0.00005048,0.00003285,-0.00000166,0.00012692,0.00023609,-0
 .00001291,-0.00023294,0.00094246,-0.00005333,-0.00462392,-0.00167213,0
 .00018648,0.06129448,-0.00000012,0.00000029,-0.00000003,0.00000008,-0.
 00000057,0.00000003,0.00000006,0.00000047,-0.00000004,0.,-0.00000057,0
 .00000003,-0.00000011,0.00000051,-0.00000004,0.00000031,-0.00000069,0.
 00000003,-0.00000050,0.00000056,-0.00000003,0.00000022,-0.00000060,0.0
 0000003,-0.00000032,0.00000048,-0.00000003,0.00000031,-0.00000069,0.00
 000004,-0.00000033,0.00000049,-0.00000003,0.00000028,-0.00000078,0.000
 00005,-0.00000044,0.00000053,-0.00000004,0.00000044,-0.00000087,0.0000
 0005,-0.00000065,0.00000058,-0.00000003,0.00000070,-0.00000101,0.00000
 006,-0.00000099,0.00000063,-0.00000004,0.00000110,-0.00000119,0.000000
 06,-0.00000152,0.00000069,-0.00000003,0.00000172,-0.00000141,0.0000000
 6,-0.00000233,0.00000075,-0.00000004,0.00000269,-0.00000171,0.00000008
 ,-0.00000359,0.00000080,-0.00000003,0.00000426,-0.00000215,0.00000009,
 -0.00000569,0.00000083,-0.00000004,0.00000691,-0.00000278,0.00000009,-
 0.00000928,0.00000081,0.,0.00001149,-0.00000378,0.00000019,-0.00001575
 ,0.00000059,-0.00000001,0.00001996,-0.00000554,-0.00000013,-0.00002832
 ,-0.00000008,0.00000014,0.00003705,-0.00000893,0.00000173,-0.00005756,
 -0.00000159,-0.00000012,0.00007408,-0.00002182,-0.00000533,-0.00013090
 ,-0.00000382,0.00000321,0.00012006,-0.00005587,0.00002178,-0.00035317,
 0.00042792,-0.00002784,0.00222287,0.00097959,-0.00051001,-0.00062878,-
 0.01011968,0.00088786,-0.04087164,-0.33125926,0.01801562,-0.00000024,0
 .00000004,0.,0.,-0.00000003,0.00000001,-0.00000003,0.00000011,0.,-0.00
 000002,-0.00000002,0.,-0.00000001,0.00000009,0.,0.,-0.00000003,0.,0.00
 000001,0.00000007,0.,0.00000002,0.00000002,0.,0.00000003,0.00000011,0.
 ,0.00000002,0.00000002,0.,0.00000002,0.00000015,0.,0.00000003,0.000000
 08,0.,0.00000001,0.00000017,0.,0.00000003,0.00000009,0.,0.00000001,0.0
 0000019,0.,0.00000003,0.00000010,0.,0.,0.00000022,-0.00000001,0.000000
 04,0.00000013,0.,0.,0.00000028,-0.00000001,0.00000005,0.00000016,0.,0.
 ,0.00000034,-0.00000001,0.00000006,0.00000021,0.,0.,0.00000041,-0.0000
 0001,0.00000007,0.00000027,0.,-0.00000001,0.00000052,-0.00000002,0.000
 00009,0.00000037,0.,-0.00000003,0.00000067,-0.00000002,0.00000015,0.00
 000054,0.,-0.00000007,0.00000092,-0.00000002,0.00000026,0.00000082,-0.
 00000002,-0.00000015,0.00000135,-0.00000001,0.00000056,0.00000137,0.00
 000007,-0.00000037,0.00000220,-0.00000002,0.00000158,0.00000255,-0.000
 00070,-0.00000102,0.00000465,-0.00000002,0.00000504,0.00000418,0.00000
 068,-0.00001532,0.00000809,-0.00000021,0.00022204,-0.00001070,0.000019
 59,-0.00097899,0.00054485,-0.00000970,-0.00196956,0.00083263,0.0006158
 2,0.04729385,0.35061354,0.,-0.00000004,-0.00000033,-0.00000001,0.00000
 002,-0.00000011,-0.00000005,-0.00000005,-0.00000008,0.00000001,0.,-0.0
 0000011,0.00000004,-0.00000003,-0.00000010,-0.00000001,0.00000007,-0.0
 0000013,0.00000003,-0.00000005,-0.00000003,0.,0.00000004,-0.00000003,0
 .,-0.00000002,0.00000002,0.,0.00000004,0.,0.,-0.00000005,0.,-0.0000000
 4,0.00000005,0.,0.00000002,-0.00000005,-0.00000002,0.,0.00000006,-0.00
 000002,0.00000004,-0.00000003,-0.00000003,-0.00000005,0.00000006,-0.00
 000004,0.00000007,-0.00000004,-0.00000004,-0.00000008,0.00000006,-0.00
 000006,0.00000008,-0.00000003,-0.00000008,-0.00000011,0.00000006,-0.00
 000010,0.00000012,-0.00000007,-0.00000010,-0.00000017,0.00000013,-0.00
 000019,0.00000025,-0.00000008,-0.00000018,-0.00000025,0.00000011,-0.00
 000017,0.00000034,-0.00000006,-0.00000031,-0.00000039,0.00000012,-0.00
 000059,0.00000053,-0.00000005,-0.00000038,-0.00000068,0.00000026,0.000
 00050,0.00000092,-0.00000009,-0.00000103,-0.00000121,-0.00000004,-0.00
 000600,0.00000168,0.,-0.00000035,-0.00000206,0.00000191,0.00002342,0.0
 0000334,-0.00000043,-0.00000909,-0.00000494,-0.00000493,-0.00010402,0.
 00000788,0.00000247,0.00003759,-0.00000559,0.00002205,0.00031911,0.000
 02140,-0.00003096,-0.00006986,-0.00018351,-0.00048751,-0.00732948,0.00
 006251,0.00105541,0.00463625,0.00261497,0.01799650,-0.03426576,0.00000
 001,0.,0.00000013,0.,0.00000001,0.00000014,0.,0.,0.00000013,0.,0.00000
 002,0.00000012,0.,0.00000004,0.00000010,0.,-0.00000001,0.00000012,0.,-
 0.00000002,0.00000011,0.,0.,0.00000007,0.,0.,0.00000001,0.,0.,-0.00000
 001,0.,-0.00000002,0.,0.,0.00000002,0.,0.,-0.00000001,0.,0.,0.,0.00000
 001,0.,-0.00000002,0.00000002,0.,0.,0.00000003,0.,-0.00000002,0.000000
 04,0.,0.,0.00000005,0.,-0.00000001,0.00000006,0.,-0.00000003,0.0000000
 8,0.,0.00000002,0.00000010,0.,0.,0.00000012,0.,-0.00000002,0.00000015,
 0.,0.,0.00000018,0.,-0.00000002,0.00000023,0.,0.,0.00000026,0.,-0.0000
 0002,0.00000036,0.,-0.00000001,0.00000050,0.,-0.00000003,0.00000059,-0
 .00000001,-0.00000002,0.00000049,0.00000001,0.,0.00000113,-0.00000002,
 0.00000007,0.00000254,0.00000004,-0.00000002,0.00000191,-0.00000016,-0
 .00000069,-0.00000896,0.00000010,-0.00000003,0.00000424,-0.00000027,0.
 00000069,0.00001597,0.00000121,-0.00000048,0.00000325,-0.00001207,0.00
 001954,0.00033720,0.00006134,-0.00002037,0.00029196,0.00020422,0.00061
 412,0.01093072,-0.00304231,-0.01988969,0.02292966,-0.00000364,0.000002
 31,-0.00000012,0.00000189,-0.00000552,0.00000033,-0.00000165,0.0000049
 7,-0.00000028,0.00000074,-0.00000583,0.00000035,-0.00000072,0.00000472
 ,-0.00000029,0.00000027,-0.00000613,0.00000037,-0.00000066,0.00000485,
 -0.00000029,0.00000011,-0.00000650,0.00000039,-0.00000055,0.00000509,-
 0.00000030,0.00000032,-0.00000714,0.00000042,-0.00000078,0.00000546,-0
 .00000032,0.00000040,-0.00000787,0.00000047,-0.00000098,0.00000596,-0.
 00000035,0.00000050,-0.00000875,0.00000052,-0.00000113,0.00000658,-0.0
 0000039,0.00000053,-0.00000980,0.00000059,-0.00000128,0.00000733,-0.00
 000043,0.00000056,-0.00001111,0.00000065,-0.00000151,0.00000827,-0.000
 00048,0.00000068,-0.00001270,0.00000075,-0.00000182,0.00000945,-0.0000
 0056,0.00000082,-0.00001465,0.00000087,-0.00000227,0.00001094,-0.00000
 065,0.00000109,-0.00001710,0.00000102,-0.00000297,0.00001286,-0.000000
 74,0.00000156,-0.00002023,0.00000120,-0.00000409,0.00001536,-0.0000009
 0,0.00000237,-0.00002437,0.00000143,-0.00000611,0.00001882,-0.00000109
 ,0.00000375,-0.00003016,0.00000185,-0.00001019,0.00002429,-0.00000142,
 0.00000452,-0.00004015,0.00000200,-0.00002230,0.00003852,-0.00000212,-
 0.00001086,-0.00007437,0.00000621,-0.00009495,0.00013533,-0.00000797,-
 0.00024957,-0.00036249,0.00001497,-0.00064287,0.00131707,-0.00007374,-
 0.00256339,-0.00424135,0.00033191,-0.01884439,0.02005053,-0.00106856,-
 0.24174960,0.13577954,-0.00693191,-0.00000058,0.00000012,0.,0.00000009
 ,-0.00000021,0.00000001,0.00000010,0.00000085,-0.00000005,0.00000003,0
 .00000007,0.,0.00000005,0.00000114,-0.00000007,0.00000006,0.00000019,0
 .,0.00000004,0.00000123,-0.00000007,0.00000012,0.00000030,-0.00000002,
 0.00000002,0.00000131,-0.00000008,0.00000009,0.00000037,-0.00000002,-0
 .00000002,0.00000146,-0.00000009,0.00000009,0.00000050,-0.00000003,-0.
 00000003,0.00000166,-0.00000010,0.00000010,0.00000061,-0.00000004,-0.0
 0000004,0.00000190,-0.00000011,0.00000010,0.00000073,-0.00000004,-0.00
 000006,0.00000217,-0.00000013,0.00000011,0.00000088,-0.00000005,-0.000
 00007,0.00000250,-0.00000015,0.00000013,0.00000103,-0.00000006,-0.0000
 0010,0.00000290,-0.00000017,0.00000014,0.00000122,-0.00000007,-0.00000
 013,0.00000336,-0.00000020,0.00000017,0.00000143,-0.00000008,-0.000000
 18,0.00000393,-0.00000023,0.00000019,0.00000169,-0.00000010,-0.0000002
 5,0.00000465,-0.00000027,0.00000023,0.00000201,-0.00000012,-0.00000036
 ,0.00000559,-0.00000032,0.00000029,0.00000241,-0.00000013,-0.00000049,
 0.00000685,-0.00000040,0.00000045,0.00000290,-0.00000019,-0.00000064,0
 .00000861,-0.00000050,0.00000087,0.00000308,-0.00000006,0.00000069,0.0
 0001160,-0.00000069,0.00000143,-0.00000077,-0.00000037,0.00001588,0.00
 001734,-0.00000099,0.00000521,-0.00007275,0.00000512,0.00013283,0.0001
 2232,-0.00000962,0.00102656,-0.00009636,-0.00003849,0.00637114,-0.0049
 5078,0.00027282,0.25664390,-0.00000017,-0.00000013,-0.00000003,0.00000
 022,0.00000019,-0.00000003,-0.00000028,-0.00000008,0.,0.00000010,0.000
 00016,-0.00000003,0.00000003,-0.00000011,0.,-0.00000026,0.00000019,-0.
 00000002,0.00000046,-0.00000015,0.,-0.00000027,0.00000003,0.,0.0000003
 1,-0.00000009,0.,-0.00000030,0.,0.,0.00000025,-0.00000003,0.,-0.000000
 23,-0.00000004,0.,0.00000028,0.00000003,0.,-0.00000033,-0.00000010,0.0
 0000001,0.00000040,0.00000010,0.,-0.00000053,-0.00000017,0.,0.00000065
 ,0.00000019,-0.00000001,-0.00000085,-0.00000026,0.00000002,0.00000105,
 0.00000032,-0.00000003,-0.00000136,-0.00000039,0.00000003,0.00000164,0
 .00000051,-0.00000004,-0.00000214,-0.00000056,0.00000004,0.00000258,0.
 00000081,-0.00000007,-0.00000341,-0.00000080,0.00000005,0.00000412,0.0
 0000128,-0.00000011,-0.00000551,-0.00000118,0.00000013,0.00000672,0.00
 000207,-0.00000019,-0.00000911,-0.00000181,-0.00000005,0.00001130,0.00
 000351,-0.00000025,-0.00001572,-0.00000287,0.00000103,0.00001977,0.000
 00669,-0.00000077,-0.00002939,-0.00000587,-0.00000348,0.00003669,0.000
 01625,-0.00000063,-0.00006787,-0.00001948,0.00001989,0.00006159,0.0000
 6736,-0.00000881,-0.00028301,-0.00013486,-0.00007681,-0.00018817,0.000
 81113,-0.00003363,-0.00212600,-0.00097607,0.00076293,-0.01286686,0.010
 74333,-0.00032054,0.14028797,-0.16144835,0.00699576,0.00000014,-0.0000
 0004,0.00000002,0.,0.00000003,0.00000001,0.00000003,-0.00000010,0.0000
 0002,0.00000002,0.00000005,0.00000001,0.,-0.00000005,0.00000001,0.,0.0
 0000006,0.,-0.00000003,0.,0.00000001,-0.00000002,0.00000003,0.,-0.0000
 0005,0.00000004,0.,-0.00000001,0.00000004,0.,-0.00000003,0.00000003,0.
 ,-0.00000001,0.,0.,-0.00000003,0.00000004,0.,-0.00000001,0.00000002,0.
 ,-0.00000003,0.00000006,0.,-0.00000001,0.00000003,0.,-0.00000003,0.000
 00008,0.,-0.00000001,0.00000003,0.,-0.00000004,0.00000010,0.,-0.000000
 01,0.00000004,0.,-0.00000004,0.00000012,0.,0.,0.00000004,0.,-0.0000000
 6,0.00000016,0.,0.,0.00000004,0.,-0.00000008,0.00000023,0.,0.00000001,
 0.00000004,0.,-0.00000013,0.00000033,0.,0.00000003,0.00000003,0.,-0.00
 000021,0.00000050,0.,0.00000007,0.00000006,0.00000007,-0.00000038,0.00
 000083,-0.00000002,0.00000019,0.00000010,-0.00000015,-0.00000094,0.000
 00165,0.00000001,0.00000064,0.00000038,0.00000133,-0.00000173,0.000003
 53,-0.00000016,0.00000016,-0.00000164,-0.00000433,-0.00000649,0.000010
 70,0.00000092,0.00008522,-0.00000839,0.00000871,-0.00037939,0.00039352
 ,-0.00003832,0.00023298,0.00123051,-0.00048830,0.02289802,-0.01193284,
 0.00072223,-0.14766206,0.16123887,0.00000003,-0.00000002,-0.00000030,-
 0.00000004,0.00000002,-0.00000010,-0.00000002,-0.00000005,-0.00000007,
 0.,0.,-0.00000010,0.00000004,-0.00000002,-0.00000010,0.00000002,0.0000
 0006,-0.00000012,-0.00000003,-0.00000004,-0.00000003,0.00000003,0.0000
 0005,-0.00000003,-0.00000003,-0.00000002,0.00000002,0.00000003,0.00000
 005,0.,-0.00000002,-0.00000005,0.00000001,-0.00000002,0.00000006,0.,-0
 .00000002,-0.00000006,-0.00000001,0.00000004,0.00000008,-0.00000001,-0
 .00000002,-0.00000004,-0.00000002,0.00000002,0.00000008,-0.00000003,-0
 .00000002,-0.00000006,-0.00000003,0.00000004,0.00000008,-0.00000005,-0
 .00000007,-0.00000006,-0.00000006,0.00000007,0.00000008,-0.00000010,-0
 .00000011,-0.00000012,-0.00000007,0.00000011,0.00000016,-0.00000011,-0
 .00000010,-0.00000015,-0.00000014,0.00000020,0.00000013,-0.00000033,-0
 .00000022,-0.00000016,-0.00000017,0.00000034,0.00000022,0.00000043,-0.
 00000039,-0.00000023,-0.00000050,0.00000050,0.00000006,-0.00000349,-0.
 00000063,-0.00000031,0.00000028,0.00000099,0.00000112,0.00001283,-0.00
 000113,-0.00000080,-0.00000438,0.00000135,-0.00000343,-0.00006689,-0.0
 0000202,-0.00000064,0.00000922,0.00000585,0.00001993,0.00030627,-0.000
 00356,-0.00000922,-0.00007393,0.00001021,-0.00007634,-0.00144374,0.000
 01606,-0.00004202,0.00023273,0.00020566,0.00077470,0.01156307,0.000895
 76,-0.00050352,0.00419851,-0.00720087,0.00702087,-0.03152817,0.,0.0000
 0001,0.00000012,0.,0.,0.00000013,0.,0.,0.00000012,0.,0.00000001,0.0000
 0011,0.,0.00000004,0.00000009,0.,-0.00000002,0.00000011,0.,-0.00000003
 ,0.00000010,0.,0.,0.00000006,0.,-0.00000001,0.,0.,0.,-0.00000001,0.,-0
 .00000003,0.,0.,0.00000002,0.,0.,-0.00000002,0.,0.,0.,0.00000001,0.,-0
 .00000002,0.00000001,0.,0.,0.00000002,0.,-0.00000003,0.00000003,0.,0.,
 0.00000004,0.,-0.00000002,0.00000005,0.,-0.00000003,0.00000006,0.,0.,0
 .00000007,0.,0.,0.00000010,0.,-0.00000003,0.00000012,0.,0.,0.00000013,
 0.,-0.00000003,0.00000018,0.,0.,0.00000026,0.,-0.00000003,0.00000026,0
 .,-0.00000002,0.00000014,0.00000002,-0.00000005,0.00000043,0.,0.000000
 06,0.00000136,0.00000002,-0.00000005,0.00000057,-0.00000003,-0.0000001
 6,-0.00000227,0.00000007,-0.00000004,0.00000178,0.00000008,0.00000131,
 0.00002264,0.00000010,-0.00000023,0.00000066,-0.00000043,-0.00000432,-
 0.00007393,0.00000044,0.00000077,0.00002528,-0.00000431,0.00000960,0.0
 0014482,0.00002033,-0.00004112,-0.00028187,-0.00005815,-0.00048654,-0.
 00690117,-0.00138909,0.00087705,0.00225816,0.00750285,-0.00753642,0.02
 160095\\-0.00000055,-0.00000017,0.00000001,0.00000441,0.00000158,-0.00
 000012,-0.00000882,-0.00000377,0.00000028,0.00001164,0.00000260,-0.000
 00022,-0.00001147,-0.00000251,0.00000021,0.00001480,0.00000173,-0.0000
 0019,-0.00001299,-0.00000163,0.00000016,0.00001340,0.00000189,-0.00000
 019,-0.00001071,-0.00000119,0.00000012,0.00000955,0.00000199,-0.000000
 18,-0.00000601,-0.00000089,0.00000007,0.00000424,0.00000187,-0.0000001
 5,-0.00000069,-0.00000069,0.00000003,-0.00000127,0.00000165,-0.0000001
 1,0.00000416,-0.00000065,0.,-0.00000592,0.00000143,-0.00000008,0.00000
 787,-0.00000073,-0.00000002,-0.00000907,0.00000124,-0.00000005,0.00001
 005,-0.00000087,-0.00000003,-0.00001042,0.00000106,-0.00000003,0.00001
 046,-0.00000102,-0.00000003,-0.00000994,0.00000089,-0.00000003,0.00000
 902,-0.00000117,0.,-0.00000772,0.00000073,-0.00000003,0.00000581,-0.00
 000134,0.00000002,-0.00000399,0.00000064,-0.00000004,0.00000111,-0.000
 00156,0.00000006,0.00000083,0.00000068,-0.00000007,-0.00000444,-0.0000
 0181,0.00000011,0.00000613,0.00000089,-0.00000011,-0.00000971,-0.00000
 197,0.00000015,0.00001088,0.00000119,-0.00000015,-0.00001351,-0.000001
 86,0.00000017,0.00001314,0.00000159,-0.00000018,-0.00001495,-0.0000016
 9,0.00000017,0.00001155,0.00000251,-0.00000022,-0.00001171,-0.00000261
 ,0.00000022,0.00000897,0.00000374,-0.00000028,-0.00000444,-0.00000153,
 0.00000012,0.00000061,0.00000016,-0.00000001,-0.00000157,-0.00000069,0
 .00000005,-0.00000170,0.00000038,-0.00000001,-0.00000149,-0.00000027,0
 .00000002,0.00000167,0.00000059,-0.00000005,-0.00000175,-0.00000053,0.
 00000004,0.00000179,0.00000016,-0.00000002,-0.00000186,-0.00000035,0.0
 0000003,0.00000159,-0.00000004,0.,-0.00000160,-0.00000021,0.00000003,0
 .00000122,-0.00000019,0.00000001,-0.00000115,-0.00000022,0.00000003,0.
 00000070,-0.00000016,0.00000002,-0.00000060,-0.00000029,0.00000004,0.0
 0000019,-0.00000004,0.00000002,-0.00000005,-0.00000031,0.00000004,-0.0
 0000026,0.00000003,0.00000002,0.00000041,-0.00000026,0.00000004,-0.000
 00061,0.00000005,0.00000003,0.00000072,-0.00000017,0.00000003,-0.00000
 082,0.00000005,0.00000003,0.00000085,-0.00000011,0.00000003,-0.0000008
 7,0.00000007,0.00000003,0.00000080,-0.00000010,0.00000003,-0.00000074,
 0.00000014,0.00000003,0.00000058,-0.00000011,0.00000003,-0.00000043,0.
 00000024,0.00000002,0.00000023,-0.00000009,0.00000003,0.00000004,0.000
 00031,0.,-0.00000022,0.,0.00000003,0.00000060,0.00000029,0.,-0.0000007
 3,0.00000013,0.00000002,0.00000116,0.00000021,0.,-0.00000124,0.0000001
 9,0.00000002,0.00000161,0.00000020,0.,-0.00000160,0.00000004,0.0000000
 2,0.00000186,0.00000033,-0.00000002,-0.00000179,-0.00000013,0.00000003
 ,0.00000177,0.00000050,-0.00000003,-0.00000166,-0.00000057,0.00000005,
 0.00000150,0.00000025,-0.00000002,0.00000168,-0.00000039,0.00000001,0.
 00000155,0.00000070,-0.00000005\\\@


 I am not a vegetarian because I love animals;
 I am a vegetarian because I hate plants.
                               -- A. Whitney Brown
 Job cpu time:       0 days  3 hours 54 minutes 36.5 seconds.
 Elapsed time:       0 days  0 hours 58 minutes 39.7 seconds.
 File lengths (MBytes):  RWF=   4905 Int=      0 D2E=      0 Chk=     68 Scr=      1
 Normal termination of Gaussian 16 at Fri Nov 10 03:16:06 2023.
