 Entering Gaussian System, Link 0=g16
 Input=./com/3.com
 Output=./log/3.log
 Initial command:
 /home/shohei/gaussian/g16/l1.exe "/home/shohei/gaussian/scratch/Gau-12601.inp" -scrdir="/home/shohei/gaussian/scratch/"
 Entering Link 1 = /home/shohei/gaussian/g16/l1.exe PID=     12603.
  
 Copyright (c) 1988-2017, Gaussian, Inc.  All Rights Reserved.
  
 This is part of the Gaussian(R) 16 program.  It is based on
 the Gaussian(R) 09 system (copyright 2009, Gaussian, Inc.),
 the Gaussian(R) 03 system (copyright 2003, Gaussian, Inc.),
 the Gaussian(R) 98 system (copyright 1998, Gaussian, Inc.),
 the Gaussian(R) 94 system (copyright 1995, Gaussian, Inc.),
 the Gaussian 92(TM) system (copyright 1992, Gaussian, Inc.),
 the Gaussian 90(TM) system (copyright 1990, Gaussian, Inc.),
 the Gaussian 88(TM) system (copyright 1988, Gaussian, Inc.),
 the Gaussian 86(TM) system (copyright 1986, Carnegie Mellon
 University), and the Gaussian 82(TM) system (copyright 1983,
 Carnegie Mellon University). Gaussian is a federally registered
 trademark of Gaussian, Inc.
  
 This software contains proprietary and confidential information,
 including trade secrets, belonging to Gaussian, Inc.
  
 This software is provided under written license and may be
 used, copied, transmitted, or stored only in accord with that
 written license.
  
 The following legend is applicable only to US Government
 contracts under FAR:
  
                    RESTRICTED RIGHTS LEGEND
  
 Use, reproduction and disclosure by the US Government is
 subject to restrictions as set forth in subparagraphs (a)
 and (c) of the Commercial Computer Software - Restricted
 Rights clause in FAR 52.227-19.
  
 Gaussian, Inc.
 340 Quinnipiac St., Bldg. 40, Wallingford CT 06492
  
  
 ---------------------------------------------------------------
 Warning -- This program may not be used in any manner that
 competes with the business of Gaussian, Inc. or will provide
 assistance to any competitor of Gaussian, Inc.  The licensee
 of this program is prohibited from giving any competitor of
 Gaussian, Inc. access to this program.  By using this program,
 the user acknowledges that Gaussian, Inc. is engaged in the
 business of creating and licensing software in the field of
 computational chemistry and represents and warrants to the
 licensee that it is not a competitor of Gaussian, Inc. and that
 it will not use this program in any manner prohibited above.
 ---------------------------------------------------------------
  

 Cite this work as:
 Gaussian 16, Revision B.01,
 M. J. Frisch, G. W. Trucks, H. B. Schlegel, G. E. Scuseria, 
 M. A. Robb, J. R. Cheeseman, G. Scalmani, V. Barone, 
 G. A. Petersson, H. Nakatsuji, X. Li, M. Caricato, A. V. Marenich, 
 J. Bloino, B. G. Janesko, R. Gomperts, B. Mennucci, H. P. Hratchian, 
 J. V. Ortiz, A. F. Izmaylov, J. L. Sonnenberg, D. Williams-Young, 
 F. Ding, F. Lipparini, F. Egidi, J. Goings, B. Peng, A. Petrone, 
 T. Henderson, D. Ranasinghe, V. G. Zakrzewski, J. Gao, N. Rega, 
 G. Zheng, W. Liang, M. Hada, M. Ehara, K. Toyota, R. Fukuda, 
 J. Hasegawa, M. Ishida, T. Nakajima, Y. Honda, O. Kitao, H. Nakai, 
 T. Vreven, K. Throssell, J. A. Montgomery, Jr., J. E. Peralta, 
 F. Ogliaro, M. J. Bearpark, J. J. Heyd, E. N. Brothers, K. N. Kudin, 
 V. N. Staroverov, T. A. Keith, R. Kobayashi, J. Normand, 
 K. Raghavachari, A. P. Rendell, J. C. Burant, S. S. Iyengar, 
 J. Tomasi, M. Cossi, J. M. Millam, M. Klene, C. Adamo, R. Cammi, 
 J. W. Ochterski, R. L. Martin, K. Morokuma, O. Farkas, 
 J. B. Foresman, and D. J. Fox, Gaussian, Inc., Wallingford CT, 2016.
 
 ******************************************
 Gaussian 16:  EM64L-G16RevB.01 20-Dec-2017
                 9-Nov-2023 
 ******************************************
 %chk=checkpoint.chk
 %nprocshared=4
 Will use up to    4 processors via shared memory.
 ---------------------------
 # B3LYP/6-31G(d,p) OPT FREQ
 ---------------------------
 1/18=20,19=15,26=3,38=1/1,3;
 2/9=110,12=2,17=6,18=5,40=1/2;
 3/5=1,6=6,7=101,11=2,25=1,30=1,71=1,74=-5/1,2,3;
 4//1;
 5/5=2,38=5/2;
 6/7=2,8=2,9=2,10=2,28=1/1;
 7//1,2,3,16;
 1/18=20,19=15,26=3/3(2);
 2/9=110/2;
 99//99;
 2/9=110/2;
 3/5=1,6=6,7=101,11=2,25=1,30=1,71=1,74=-5/1,2,3;
 4/5=5,16=3,69=1/1;
 5/5=2,38=5/2;
 7//1,2,3,16;
 1/18=20,19=15,26=3/3(-5);
 2/9=110/2;
 6/7=2,8=2,9=2,10=2,19=2,28=1/1;
 99/9=1/99;
 -----
 3poly
 -----
 Symbolic Z-matrix:
 Charge =  0 Multiplicity = 1
 C                    -2.24745   1.23651   0.01778 
 C                    -1.00789   1.73012  -0.02801 
 C                     0.17039   0.84009   0.01577 
 C                     1.4125    1.33938  -0.03065 
 C                     2.59054   0.449     0.01305 
 C                     3.83032   0.94197  -0.03316 
 H                    -3.09975   1.90744  -0.01566 
 H                    -2.42436   0.16728   0.08849 
 H                    -0.87221   2.80604  -0.09871 
 H                     0.02215  -0.23514   0.08665 
 H                     1.56088   2.4146   -0.10158 
 H                     2.45442  -0.62686   0.08396 
 H                     4.00781   2.01107  -0.10415 
 H                     4.68223   0.27053   0.00019 
 

 GradGradGradGradGradGradGradGradGradGradGradGradGradGradGradGradGradGrad
 Berny optimization.
 Initialization pass.
                           ----------------------------
                           !    Initial Parameters    !
                           ! (Angstroms and Degrees)  !
 --------------------------                            --------------------------
 ! Name  Definition              Value          Derivative Info.                !
 --------------------------------------------------------------------------------
 ! R1    R(1,2)                  1.335          estimate D2E/DX2                !
 ! R2    R(1,7)                  1.0852         estimate D2E/DX2                !
 ! R3    R(1,8)                  1.0861         estimate D2E/DX2                !
 ! R4    R(2,3)                  1.4773         estimate D2E/DX2                !
 ! R5    R(2,9)                  1.0867         estimate D2E/DX2                !
 ! R6    R(3,4)                  1.3395         estimate D2E/DX2                !
 ! R7    R(3,10)                 1.0877         estimate D2E/DX2                !
 ! R8    R(4,5)                  1.4773         estimate D2E/DX2                !
 ! R9    R(4,11)                 1.0877         estimate D2E/DX2                !
 ! R10   R(5,6)                  1.335          estimate D2E/DX2                !
 ! R11   R(5,12)                 1.0867         estimate D2E/DX2                !
 ! R12   R(6,13)                 1.0861         estimate D2E/DX2                !
 ! R13   R(6,14)                 1.0852         estimate D2E/DX2                !
 ! A1    A(2,1,7)              119.9718         estimate D2E/DX2                !
 ! A2    A(2,1,8)              121.1639         estimate D2E/DX2                !
 ! A3    A(7,1,8)              118.8643         estimate D2E/DX2                !
 ! A4    A(1,2,3)              121.117          estimate D2E/DX2                !
 ! A5    A(1,2,9)              118.9616         estimate D2E/DX2                !
 ! A6    A(3,2,9)              119.9214         estimate D2E/DX2                !
 ! A7    A(2,3,4)              120.9311         estimate D2E/DX2                !
 ! A8    A(2,3,10)             119.2606         estimate D2E/DX2                !
 ! A9    A(4,3,10)             119.8082         estimate D2E/DX2                !
 ! A10   A(3,4,5)              120.9147         estimate D2E/DX2                !
 ! A11   A(3,4,11)             119.8153         estimate D2E/DX2                !
 ! A12   A(5,4,11)             119.2701         estimate D2E/DX2                !
 ! A13   A(4,5,6)              121.1284         estimate D2E/DX2                !
 ! A14   A(4,5,12)             119.9145         estimate D2E/DX2                !
 ! A15   A(6,5,12)             118.9571         estimate D2E/DX2                !
 ! A16   A(5,6,13)             121.1677         estimate D2E/DX2                !
 ! A17   A(5,6,14)             119.9658         estimate D2E/DX2                !
 ! A18   A(13,6,14)            118.8665         estimate D2E/DX2                !
 ! D1    D(7,1,2,3)           -179.9979         estimate D2E/DX2                !
 ! D2    D(7,1,2,9)             -0.0003         estimate D2E/DX2                !
 ! D3    D(8,1,2,3)              0.0004         estimate D2E/DX2                !
 ! D4    D(8,1,2,9)            179.9981         estimate D2E/DX2                !
 ! D5    D(1,2,3,4)            179.9887         estimate D2E/DX2                !
 ! D6    D(1,2,3,10)            -0.0077         estimate D2E/DX2                !
 ! D7    D(9,2,3,4)             -0.0089         estimate D2E/DX2                !
 ! D8    D(9,2,3,10)           179.9947         estimate D2E/DX2                !
 ! D9    D(2,3,4,5)           -179.9953         estimate D2E/DX2                !
 ! D10   D(2,3,4,11)             0.0011         estimate D2E/DX2                !
 ! D11   D(10,3,4,5)             0.0011         estimate D2E/DX2                !
 ! D12   D(10,3,4,11)          179.9975         estimate D2E/DX2                !
 ! D13   D(3,4,5,6)            179.9889         estimate D2E/DX2                !
 ! D14   D(3,4,5,12)            -0.0087         estimate D2E/DX2                !
 ! D15   D(11,4,5,6)            -0.0075         estimate D2E/DX2                !
 ! D16   D(11,4,5,12)          179.9949         estimate D2E/DX2                !
 ! D17   D(4,5,6,13)             0.0005         estimate D2E/DX2                !
 ! D18   D(4,5,6,14)          -179.9979         estimate D2E/DX2                !
 ! D19   D(12,5,6,13)          179.9981         estimate D2E/DX2                !
 ! D20   D(12,5,6,14)           -0.0003         estimate D2E/DX2                !
 --------------------------------------------------------------------------------
 Trust Radius=3.00D-01 FncErr=1.00D-07 GrdErr=1.00D-06 EigMax=2.50D+02 EigMin=1.00D-04
 Number of steps in this run=     61 maximum allowed number of steps=    100.
 GradGradGradGradGradGradGradGradGradGradGradGradGradGradGradGradGradGrad

                          Input orientation:                          
 ---------------------------------------------------------------------
 Center     Atomic      Atomic             Coordinates (Angstroms)
 Number     Number       Type             X           Y           Z
 ---------------------------------------------------------------------
      1          6           0       -2.247447    1.236507    0.017784
      2          6           0       -1.007894    1.730120   -0.028014
      3          6           0        0.170392    0.840092    0.015766
      4          6           0        1.412499    1.339378   -0.030652
      5          6           0        2.590540    0.448996    0.013049
      6          6           0        3.830317    0.941974   -0.033159
      7          1           0       -3.099753    1.907435   -0.015662
      8          1           0       -2.424355    0.167279    0.088487
      9          1           0       -0.872207    2.806043   -0.098711
     10          1           0        0.022150   -0.235144    0.086649
     11          1           0        1.560876    2.414601   -0.101577
     12          1           0        2.454416   -0.626856    0.083957
     13          1           0        4.007811    2.011074   -0.104145
     14          1           0        4.682230    0.270529    0.000186
 ---------------------------------------------------------------------
                    Distance matrix (angstroms):
                    1          2          3          4          5
     1  C    0.000000
     2  C    1.335007   0.000000
     3  C    2.450122   1.477303   0.000000
     4  C    3.661712   2.451732   1.339504   0.000000
     5  C    4.901664   3.819907   2.451546   1.477318   0.000000
     6  C    6.085109   4.901987   3.661669   2.450261   1.334995
     7  H    1.085214   2.099397   3.440067   4.547893   5.874291
     8  H    1.086067   2.112441   2.681544   4.013659   5.023368
     9  H    2.090048   1.086746   2.228246   2.715809   4.190319
    10  H    2.705839   2.221801   1.087718   2.103794   2.658964
    11  H    3.988167   2.659417   2.103876   1.087727   2.221925
    12  H    5.058064   4.189924   2.715391   2.228183   1.086745
    13  H    6.304211   5.024144   4.013896   2.681832   2.112459
    14  H    6.996703   5.874411   4.547673   3.440135   2.099330
                    6          7          8          9         10
     6  C    0.000000
     7  H    6.997019   0.000000
     8  H    6.303639   1.869532   0.000000
     9  H    5.058930   2.403404   3.067129   0.000000
    10  H    3.987743   3.787794   2.479381   3.175381   0.000000
    11  H    2.706229   4.688929   4.579153   2.464371   3.069895
    12  H    2.089987   6.105845   4.942983   4.783783   2.463609
    13  H    1.086056   7.108870   6.693986   4.944348   4.579017
    14  H    1.085222   7.952293   7.107884   6.106585   4.688234
                   11         12         13         14
    11  H    0.000000
    12  H    3.175421   0.000000
    13  H    2.479987   3.067098   0.000000
    14  H    3.788173   2.403221   1.869552   0.000000
 Stoichiometry    C6H8
 Framework group  C1[X(C6H8)]
 Deg. of freedom    36
 Full point group                 C1      NOp   1
 Largest Abelian subgroup         C1      NOp   1
 Largest concise Abelian subgroup C1      NOp   1
                         Standard orientation:                         
 ---------------------------------------------------------------------
 Center     Atomic      Atomic             Coordinates (Angstroms)
 Number     Number       Type             X           Y           Z
 ---------------------------------------------------------------------
      1          6           0        3.036886   -0.184852    0.000153
      2          6           0        1.858204    0.442006   -0.000071
      3          6           0        0.590286   -0.316156   -0.000123
      4          6           0       -0.590321    0.316646   -0.000122
      5          6           0       -1.858034   -0.441888   -0.000070
      6          6           0       -3.037010    0.184391    0.000153
      7          1           0        3.956971    0.390590    0.000223
      8          1           0        3.096728   -1.269269    0.000296
      9          1           0        1.840067    1.528601   -0.000176
     10          1           0        0.620980   -1.403441   -0.000104
     11          1           0       -0.621149    1.403937   -0.000100
     12          1           0       -1.839454   -1.528474   -0.000175
     13          1           0       -3.097449    1.268764    0.000295
     14          1           0       -3.956761   -0.391599    0.000222
 ---------------------------------------------------------------------
 Rotational constants (GHZ):          25.0916157           1.3619377           1.2918196
 Standard basis: 6-31G(d,p) (6D, 7F)
 There are   130 symmetry adapted cartesian basis functions of A   symmetry.
 There are   130 symmetry adapted basis functions of A   symmetry.
   130 basis functions,   224 primitive gaussians,   130 cartesian basis functions
    22 alpha electrons       22 beta electrons
       nuclear repulsion energy       194.2450578304 Hartrees.
 NAtoms=   14 NActive=   14 NUniq=   14 SFac= 1.00D+00 NAtFMM=   60 NAOKFM=F Big=F
 Integral buffers will be    131072 words long.
 Raffenetti 2 integral format.
 Two-electron integral symmetry is turned on.
 One-electron integrals computed using PRISM.
 NBasis=   130 RedAO= T EigKep=  2.19D-03  NBF=   130
 NBsUse=   130 1.00D-06 EigRej= -1.00D+00 NBFU=   130
 ExpMin= 1.61D-01 ExpMax= 3.05D+03 ExpMxC= 4.57D+02 IAcc=3 IRadAn=         5 AccDes= 0.00D+00
 Harris functional with IExCor=  402 and IRadAn=       5 diagonalized for initial guess.
 HarFok:  IExCor=  402 AccDes= 0.00D+00 IRadAn=         5 IDoV= 1 UseB2=F ITyADJ=14
 ICtDFT=  3500011 ScaDFX=  1.000000  1.000000  1.000000  1.000000
 FoFCou: FMM=F IPFlag=           0 FMFlag=      100000 FMFlg1=           0
         NFxFlg=           0 DoJE=T BraDBF=F KetDBF=T FulRan=T
         wScrn=  0.000000 ICntrl=       500 IOpCl=  0 I1Cent=   200000004 NGrid=           0
         NMat0=    1 NMatS0=      1 NMatT0=    0 NMatD0=    1 NMtDS0=    0 NMtDT0=    0
 Petite list used in FoFCou.
 Keep R1 ints in memory in canonical form, NReq=40081234.
 Requested convergence on RMS density matrix=1.00D-08 within 128 cycles.
 Requested convergence on MAX density matrix=1.00D-06.
 Requested convergence on             energy=1.00D-06.
 No special actions if energy rises.
 Integral accuracy reduced to 1.0D-05 until final iterations.
 Initial convergence to 1.0D-05 achieved.  Increase integral accuracy.
 SCF Done:  E(RB3LYP) =  -233.407361156     A.U. after   12 cycles
            NFock= 12  Conv=0.17D-08     -V/T= 2.0101

 **********************************************************************

            Population analysis using the SCF Density.

 **********************************************************************

 Orbital symmetries:
       Occupied  (A) (A) (A) (A) (A) (A) (A) (A) (A) (A) (A) (A)
                 (A) (A) (A) (A) (A) (A) (A) (A) (A) (A)
       Virtual   (A) (A) (A) (A) (A) (A) (A) (A) (A) (A) (A) (A)
                 (A) (A) (A) (A) (A) (A) (A) (A) (A) (A) (A) (A)
                 (A) (A) (A) (A) (A) (A) (A) (A) (A) (A) (A) (A)
                 (A) (A) (A) (A) (A) (A) (A) (A) (A) (A) (A) (A)
                 (A) (A) (A) (A) (A) (A) (A) (A) (A) (A) (A) (A)
                 (A) (A) (A) (A) (A) (A) (A) (A) (A) (A) (A) (A)
                 (A) (A) (A) (A) (A) (A) (A) (A) (A) (A) (A) (A)
                 (A) (A) (A) (A) (A) (A) (A) (A) (A) (A) (A) (A)
                 (A) (A) (A) (A) (A) (A) (A) (A) (A) (A) (A) (A)
 The electronic state is 1-A.
 Alpha  occ. eigenvalues --  -10.19205 -10.19204 -10.19101 -10.19018 -10.18018
 Alpha  occ. eigenvalues --  -10.18017  -0.81552  -0.77439  -0.71807  -0.60793
 Alpha  occ. eigenvalues --   -0.55916  -0.54940  -0.48024  -0.45957  -0.42229
 Alpha  occ. eigenvalues --   -0.39957  -0.37784  -0.36441  -0.34149  -0.33594
 Alpha  occ. eigenvalues --   -0.28445  -0.21079
 Alpha virt. eigenvalues --   -0.03657   0.04689   0.09373   0.09985   0.12311
 Alpha virt. eigenvalues --    0.12989   0.14404   0.15695   0.18688   0.19310
 Alpha virt. eigenvalues --    0.20854   0.31354   0.32959   0.34262   0.36986
 Alpha virt. eigenvalues --    0.40483   0.47365   0.51253   0.52447   0.55393
 Alpha virt. eigenvalues --    0.58130   0.59761   0.60443   0.60839   0.61894
 Alpha virt. eigenvalues --    0.64823   0.67855   0.69780   0.70239   0.70805
 Alpha virt. eigenvalues --    0.80586   0.83077   0.84016   0.85674   0.86254
 Alpha virt. eigenvalues --    0.87630   0.91121   0.92509   0.95382   0.97921
 Alpha virt. eigenvalues --    1.06167   1.06439   1.09737   1.14151   1.26094
 Alpha virt. eigenvalues --    1.28011   1.30769   1.31596   1.31782   1.37216
 Alpha virt. eigenvalues --    1.39670   1.43655   1.45843   1.48411   1.51666
 Alpha virt. eigenvalues --    1.76274   1.76433   1.84567   1.88104   1.88871
 Alpha virt. eigenvalues --    1.93380   1.94678   1.98540   1.98739   2.02323
 Alpha virt. eigenvalues --    2.04324   2.06178   2.15806   2.16796   2.19950
 Alpha virt. eigenvalues --    2.22097   2.22593   2.30233   2.41562   2.41657
 Alpha virt. eigenvalues --    2.41750   2.48571   2.50361   2.50850   2.52150
 Alpha virt. eigenvalues --    2.54201   2.57074   2.59334   2.64535   2.68060
 Alpha virt. eigenvalues --    2.70066   2.70670   2.71557   2.75365   2.83954
 Alpha virt. eigenvalues --    2.90001   2.91962   2.98233   2.99593   3.27369
 Alpha virt. eigenvalues --    3.28553   3.37485   3.40867   3.48362   3.62605
 Alpha virt. eigenvalues --    3.65952   3.72874   4.13658   4.15436   4.22517
 Alpha virt. eigenvalues --    4.33031   4.52289   4.69584
          Condensed to atoms (all electrons):
               1          2          3          4          5          6
     1  C    4.963176   0.619208  -0.031020   0.002717  -0.000288   0.000005
     2  C    0.619208   4.744649   0.417528  -0.021015   0.004398  -0.000289
     3  C   -0.031020   0.417528   4.848860   0.591006  -0.020984   0.002714
     4  C    0.002717  -0.021015   0.591006   4.848899   0.417533  -0.031037
     5  C   -0.000288   0.004398  -0.020984   0.417533   4.744602   0.619212
     6  C    0.000005  -0.000289   0.002714  -0.031037   0.619212   4.963209
     7  H    0.369535  -0.020487   0.004049  -0.000225   0.000003  -0.000000
     8  H    0.382909  -0.036101  -0.012638   0.000552   0.000000  -0.000000
     9  H   -0.050839   0.382284  -0.047554  -0.005700   0.000257  -0.000004
    10  H   -0.005140  -0.046749   0.380127  -0.051889  -0.009303   0.000492
    11  H    0.000492  -0.009296  -0.051878   0.380118  -0.046737  -0.005135
    12  H   -0.000004   0.000257  -0.005702  -0.047564   0.382289  -0.050842
    13  H   -0.000000   0.000000   0.000552  -0.012634  -0.036096   0.382908
    14  H   -0.000000   0.000003  -0.000225   0.004051  -0.020481   0.369532
               7          8          9         10         11         12
     1  C    0.369535   0.382909  -0.050839  -0.005140   0.000492  -0.000004
     2  C   -0.020487  -0.036101   0.382284  -0.046749  -0.009296   0.000257
     3  C    0.004049  -0.012638  -0.047554   0.380127  -0.051878  -0.005702
     4  C   -0.000225   0.000552  -0.005700  -0.051889   0.380118  -0.047564
     5  C    0.000003   0.000000   0.000257  -0.009303  -0.046737   0.382289
     6  C   -0.000000  -0.000000  -0.000004   0.000492  -0.005135  -0.050842
     7  H    0.601409  -0.042311  -0.008077   0.000026  -0.000008   0.000000
     8  H   -0.042311   0.600869   0.005961   0.004593   0.000014   0.000001
     9  H   -0.008077   0.005961   0.630416   0.004330   0.004178   0.000005
    10  H    0.000026   0.004593   0.004330   0.630287   0.006034   0.004181
    11  H   -0.000008   0.000014   0.004178   0.006034   0.630263   0.004329
    12  H    0.000000   0.000001   0.000005   0.004181   0.004329   0.630436
    13  H   -0.000000   0.000000   0.000001   0.000014   0.004589   0.005961
    14  H    0.000000  -0.000000   0.000000  -0.000008   0.000026  -0.008083
              13         14
     1  C   -0.000000  -0.000000
     2  C    0.000000   0.000003
     3  C    0.000552  -0.000225
     4  C   -0.012634   0.004051
     5  C   -0.036096  -0.020481
     6  C    0.382908   0.369532
     7  H   -0.000000   0.000000
     8  H    0.000000  -0.000000
     9  H    0.000001   0.000000
    10  H    0.000014  -0.000008
    11  H    0.004589   0.000026
    12  H    0.005961  -0.008083
    13  H    0.600869  -0.042311
    14  H   -0.042311   0.601416
 Mulliken charges:
               1
     1  C   -0.250750
     2  C   -0.034390
     3  C   -0.074835
     4  C   -0.074813
     5  C   -0.034404
     6  C   -0.250767
     7  H    0.096086
     8  H    0.096151
     9  H    0.084743
    10  H    0.083005
    11  H    0.083012
    12  H    0.084734
    13  H    0.096146
    14  H    0.096080
 Sum of Mulliken charges =  -0.00000
 Mulliken charges with hydrogens summed into heavy atoms:
               1
     1  C   -0.058513
     2  C    0.050353
     3  C    0.008169
     4  C    0.008199
     5  C    0.050331
     6  C   -0.058540
 Electronic spatial extent (au):  <R**2>=            903.2299
 Charge=             -0.0000 electrons
 Dipole moment (field-independent basis, Debye):
    X=              0.0005    Y=              0.0001    Z=              0.0001  Tot=              0.0005
 Quadrupole moment (field-independent basis, Debye-Ang):
   XX=            -34.6665   YY=            -32.7012   ZZ=            -40.7427
   XY=              0.3256   XZ=              0.0000   YZ=              0.0000
 Traceless Quadrupole moment (field-independent basis, Debye-Ang):
   XX=              1.3703   YY=              3.3356   ZZ=             -4.7059
   XY=              0.3256   XZ=              0.0000   YZ=              0.0000
 Octapole moment (field-independent basis, Debye-Ang**2):
  XXX=              0.0068  YYY=              0.0012  ZZZ=             -0.0001  XYY=             -0.0007
  XXY=              0.0006  XXZ=              0.0036  XZZ=              0.0004  YZZ=              0.0001
  YYZ=             -0.0000  XYZ=             -0.0014
 Hexadecapole moment (field-independent basis, Debye-Ang**3):
 XXXX=          -1035.3269 YYYY=            -99.7260 ZZZZ=            -42.2029 XXXY=             12.4384
 XXXZ=              0.0000 YYYX=             -0.8136 YYYZ=              0.0000 ZZZX=              0.0000
 ZZZY=              0.0000 XXYY=           -185.3350 XXZZ=           -212.3363 YYZZ=            -26.6220
 XXYZ=             -0.0000 YYXZ=              0.0000 ZZXY=             -0.0292
 N-N= 1.942450578304D+02 E-N=-9.280879789132D+02  KE= 2.310839819833D+02
 Calling FoFJK, ICntrl=      2127 FMM=F ISym2X=0 I1Cent= 0 IOpClX= 0 NMat=1 NMatS=1 NMatT=0.
 ***** Axes restored to original set *****
 -------------------------------------------------------------------
 Center     Atomic                   Forces (Hartrees/Bohr)
 Number     Number              X              Y              Z
 -------------------------------------------------------------------
      1        6          -0.007264191    0.004665550   -0.000217263
      2        6           0.007988567   -0.022410138    0.001349532
      3        6          -0.016275406    0.024923760   -0.001417036
      4        6           0.016269376   -0.024926223    0.001416819
      5        6          -0.007987502    0.022413999   -0.001351418
      6        6           0.007268557   -0.004671618    0.000216500
      7        1          -0.002900149   -0.003379641    0.000250435
      8        1          -0.002373940    0.000571718   -0.000008766
      9        1           0.005357884   -0.000082024   -0.000055491
     10        1          -0.003377664    0.000690013   -0.000005137
     11        1           0.003377420   -0.000698590    0.000006567
     12        1          -0.005359158    0.000081884    0.000057214
     13        1           0.002373801   -0.000565771    0.000009815
     14        1           0.002902403    0.003387080   -0.000251770
 -------------------------------------------------------------------
 Cartesian Forces:  Max     0.024926223 RMS     0.008720883

 GradGradGradGradGradGradGradGradGradGradGradGradGradGradGradGradGradGrad
 Berny optimization.
 FormGI is forming the generalized inverse of G from B-inverse, IUseBI=4.
 Internal  Forces:  Max     0.015615185 RMS     0.006155751
 Search for a local minimum.
 Step number   1 out of a maximum of   61
 All quantities printed in internal units (Hartrees-Bohrs-Radians)
 Mixed Optimization -- RFO/linear search
 Second derivative matrix not updated -- first step.
 ITU=  0
     Eigenvalues ---    0.01066   0.01066   0.01982   0.01983   0.01998
     Eigenvalues ---    0.01998   0.02889   0.02948   0.02948   0.02949
     Eigenvalues ---    0.02949   0.16000   0.16000   0.16000   0.16000
     Eigenvalues ---    0.16000   0.16000   0.16000   0.16000   0.22000
     Eigenvalues ---    0.22000   0.22000   0.22000   0.34878   0.34880
     Eigenvalues ---    0.35077   0.35078   0.35191   0.35192   0.35271
     Eigenvalues ---    0.35272   0.35371   0.35372   0.57316   0.58339
     Eigenvalues ---    0.58341
 RFO step:  Lambda=-7.05725387D-03 EMin= 1.06598466D-02
 Linear search not attempted -- first point.
 Iteration  1 RMS(Cart)=  0.04315194 RMS(Int)=  0.00040352
 Iteration  2 RMS(Cart)=  0.00084842 RMS(Int)=  0.00000027
 Iteration  3 RMS(Cart)=  0.00000005 RMS(Int)=  0.00000027
 Variable       Old X    -DE/DX   Delta X   Delta X   Delta X     New X
                                 (Linear)    (Quad)   (Total)
    R1        2.52280   0.01096   0.00000   0.01856   0.01856   2.54135
    R2        2.05076   0.00018   0.00000   0.00050   0.00050   2.05126
    R3        2.05237  -0.00018   0.00000  -0.00049  -0.00049   2.05188
    R4        2.79170  -0.01312   0.00000  -0.03686  -0.03686   2.75484
    R5        2.05365   0.00059   0.00000   0.00165   0.00165   2.05530
    R6        2.53130   0.01562   0.00000   0.02691   0.02691   2.55821
    R7        2.05549  -0.00022   0.00000  -0.00062  -0.00062   2.05487
    R8        2.79173  -0.01312   0.00000  -0.03688  -0.03688   2.75485
    R9        2.05551  -0.00023   0.00000  -0.00064  -0.00064   2.05486
   R10        2.52277   0.01097   0.00000   0.01857   0.01857   2.54135
   R11        2.05365   0.00059   0.00000   0.00165   0.00165   2.05530
   R12        2.05235  -0.00017   0.00000  -0.00047  -0.00047   2.05188
   R13        2.05077   0.00018   0.00000   0.00049   0.00049   2.05126
    A1        2.09390   0.00443   0.00000   0.02650   0.02650   2.12040
    A2        2.11471   0.00029   0.00000   0.00171   0.00171   2.11642
    A3        2.07457  -0.00471   0.00000  -0.02821  -0.02821   2.04636
    A4        2.11389   0.01161   0.00000   0.05111   0.05111   2.16500
    A5        2.07627  -0.00033   0.00000   0.00718   0.00718   2.08345
    A6        2.09302  -0.01127   0.00000  -0.05829  -0.05829   2.03473
    A7        2.11065   0.01218   0.00000   0.05364   0.05364   2.16429
    A8        2.08149  -0.00963   0.00000  -0.04798  -0.04798   2.03351
    A9        2.09105  -0.00255   0.00000  -0.00566  -0.00566   2.08539
   A10        2.11036   0.01222   0.00000   0.05383   0.05383   2.16419
   A11        2.09117  -0.00257   0.00000  -0.00574  -0.00574   2.08543
   A12        2.08166  -0.00965   0.00000  -0.04809  -0.04809   2.03357
   A13        2.11409   0.01158   0.00000   0.05099   0.05099   2.16508
   A14        2.09290  -0.01126   0.00000  -0.05824  -0.05824   2.03466
   A15        2.07619  -0.00032   0.00000   0.00725   0.00725   2.08344
   A16        2.11478   0.00028   0.00000   0.00167   0.00167   2.11645
   A17        2.09380   0.00444   0.00000   0.02657   0.02657   2.12036
   A18        2.07461  -0.00472   0.00000  -0.02824  -0.02824   2.04638
    D1       -3.14156  -0.00000   0.00000  -0.00003  -0.00003  -3.14158
    D2       -0.00000   0.00000   0.00000   0.00001   0.00001   0.00000
    D3        0.00001   0.00000   0.00000   0.00001   0.00001   0.00002
    D4        3.14156   0.00000   0.00000   0.00004   0.00004  -3.14158
    D5        3.14140   0.00000   0.00000   0.00011   0.00011   3.14150
    D6       -0.00013   0.00000   0.00000   0.00005   0.00005  -0.00008
    D7       -0.00015   0.00000   0.00000   0.00007   0.00007  -0.00009
    D8        3.14150  -0.00000   0.00000   0.00001   0.00001   3.14151
    D9       -3.14151  -0.00000   0.00000  -0.00005  -0.00005  -3.14156
   D10        0.00002   0.00000   0.00000   0.00000   0.00000   0.00002
   D11        0.00002   0.00000   0.00000   0.00000   0.00000   0.00002
   D12        3.14155   0.00000   0.00000   0.00006   0.00006  -3.14158
   D13        3.14140   0.00000   0.00000   0.00010   0.00010   3.14150
   D14       -0.00015   0.00000   0.00000   0.00007   0.00007  -0.00008
   D15       -0.00013   0.00000   0.00000   0.00005   0.00005  -0.00008
   D16        3.14150  -0.00000   0.00000   0.00001   0.00001   3.14152
   D17        0.00001   0.00000   0.00000   0.00001   0.00001   0.00001
   D18       -3.14156  -0.00000   0.00000  -0.00003  -0.00003  -3.14158
   D19        3.14156   0.00000   0.00000   0.00004   0.00004  -3.14158
   D20       -0.00000   0.00000   0.00000   0.00001   0.00001   0.00000
         Item               Value     Threshold  Converged?
 Maximum Force            0.015615     0.000450     NO 
 RMS     Force            0.006156     0.000300     NO 
 Maximum Displacement     0.131829     0.001800     NO 
 RMS     Displacement     0.042619     0.001200     NO 
 Predicted change in Energy=-3.633454D-03
 GradGradGradGradGradGradGradGradGradGradGradGradGradGradGradGradGradGrad

                          Input orientation:                          
 ---------------------------------------------------------------------
 Center     Atomic      Atomic             Coordinates (Angstroms)
 Number     Number       Type             X           Y           Z
 ---------------------------------------------------------------------
      1          6           0       -2.289068    1.235319    0.018401
      2          6           0       -1.028471    1.701668   -0.026006
      3          6           0        0.157106    0.854369    0.014905
      4          6           0        1.425725    1.324710   -0.029955
      5          6           0        2.611221    0.477290    0.010930
      6          6           0        3.871896    0.943403   -0.033667
      7          1           0       -3.142817    1.904848   -0.014887
      8          1           0       -2.494116    0.171399    0.089166
      9          1           0       -0.858394    2.773566   -0.096876
     10          1           0       -0.014250   -0.217089    0.085838
     11          1           0        1.597117    2.396160   -0.100873
     12          1           0        2.440968   -0.594573    0.081938
     13          1           0        4.077159    2.007272   -0.104556
     14          1           0        4.725499    0.273687   -0.000402
 ---------------------------------------------------------------------
                    Distance matrix (angstroms):
                    1          2          3          4          5
     1  C    0.000000
     2  C    1.344826   0.000000
     3  C    2.475662   1.457800   0.000000
     4  C    3.716183   2.482980   1.353745   0.000000
     5  C    4.958578   3.840290   2.482919   1.457805   0.000000
     6  C    6.168096   4.958692   3.716174   2.475715   1.344824
     7  H    1.085479   2.124114   3.463218   4.605253   5.928536
     8  H    1.085807   2.122051   2.738784   4.087721   5.115091
     9  H    2.103882   1.087618   2.174178   2.705708   4.162059
    10  H    2.699784   2.173196   1.087390   2.112837   2.716776
    11  H    4.057612   2.716917   2.112855   1.087387   2.173239
    12  H    5.072059   4.161897   2.705542   2.174141   1.087620
    13  H    6.414037   5.115371   4.087820   2.738897   2.122064
    14  H    7.080201   5.928572   4.605176   3.463241   2.124089
                    6          7          8          9         10
     6  C    0.000000
     7  H    7.080319   0.000000
     8  H    6.413827   1.853776   0.000000
     9  H    5.072389   2.445400   3.079199   0.000000
    10  H    4.057481   3.781625   2.510113   3.112873   0.000000
    11  H    2.699933   4.766105   4.660887   2.484348   3.075782
    12  H    2.103874   6.118426   4.994179   4.718275   2.484071
    13  H    1.085807   7.221258   6.825658   4.994692   4.660864
    14  H    1.085479   8.035626   7.220895   6.118706   4.765871
                   11         12         13         14
    11  H    0.000000
    12  H    3.112875   0.000000
    13  H    2.510349   3.079204   0.000000
    14  H    3.781766   2.445350   1.853783   0.000000
 Stoichiometry    C6H8
 Framework group  C1[X(C6H8)]
 Deg. of freedom    36
 Full point group                 C1      NOp   1
 Largest Abelian subgroup         C1      NOp   1
 Largest concise Abelian subgroup C1      NOp   1
                         Standard orientation:                         
 ---------------------------------------------------------------------
 Center     Atomic      Atomic             Coordinates (Angstroms)
 Number     Number       Type             X           Y           Z
 ---------------------------------------------------------------------
      1          6           0        3.079322   -0.170325    0.000070
      2          6           0        1.872834    0.423765   -0.000032
      3          6           0        0.607026   -0.299362   -0.000050
      4          6           0       -0.607037    0.299536   -0.000049
      5          6           0       -1.872777   -0.423717   -0.000031
      6          6           0       -3.079368    0.170159    0.000070
      7          1           0        3.996901    0.409600    0.000089
      8          1           0        3.174819   -1.251925    0.000133
      9          1           0        1.812939    1.509732   -0.000101
     10          1           0        0.668237   -1.385027   -0.000057
     11          1           0       -0.668286    1.385197   -0.000055
     12          1           0       -1.812704   -1.509677   -0.000100
     13          1           0       -3.175085    1.251738    0.000132
     14          1           0       -3.996822   -0.409965    0.000088
 ---------------------------------------------------------------------
 Rotational constants (GHZ):          26.4425490           1.3276962           1.2642190
 Standard basis: 6-31G(d,p) (6D, 7F)
 There are   130 symmetry adapted cartesian basis functions of A   symmetry.
 There are   130 symmetry adapted basis functions of A   symmetry.
   130 basis functions,   224 primitive gaussians,   130 cartesian basis functions
    22 alpha electrons       22 beta electrons
       nuclear repulsion energy       193.3712972834 Hartrees.
 NAtoms=   14 NActive=   14 NUniq=   14 SFac= 1.00D+00 NAtFMM=   60 NAOKFM=F Big=F
 Integral buffers will be    131072 words long.
 Raffenetti 2 integral format.
 Two-electron integral symmetry is turned on.
 One-electron integrals computed using PRISM.
 NBasis=   130 RedAO= T EigKep=  2.18D-03  NBF=   130
 NBsUse=   130 1.00D-06 EigRej= -1.00D+00 NBFU=   130
 Initial guess from the checkpoint file:  "checkpoint.chk"
 B after Tr=    -0.000000    0.000000   -0.000000
         Rot=    0.999998    0.000000   -0.000000   -0.001948 Ang=   0.22 deg.
 ExpMin= 1.61D-01 ExpMax= 3.05D+03 ExpMxC= 4.57D+02 IAcc=3 IRadAn=         5 AccDes= 0.00D+00
 Harris functional with IExCor=  402 and IRadAn=       5 diagonalized for initial guess.
 HarFok:  IExCor=  402 AccDes= 0.00D+00 IRadAn=         5 IDoV= 1 UseB2=F ITyADJ=14
 ICtDFT=  3500011 ScaDFX=  1.000000  1.000000  1.000000  1.000000
 FoFCou: FMM=F IPFlag=           0 FMFlag=      100000 FMFlg1=           0
         NFxFlg=           0 DoJE=T BraDBF=F KetDBF=T FulRan=T
         wScrn=  0.000000 ICntrl=       500 IOpCl=  0 I1Cent=   200000004 NGrid=           0
         NMat0=    1 NMatS0=      1 NMatT0=    0 NMatD0=    1 NMtDS0=    0 NMtDT0=    0
 Petite list used in FoFCou.
 Keep R1 ints in memory in canonical form, NReq=40081234.
 Requested convergence on RMS density matrix=1.00D-08 within 128 cycles.
 Requested convergence on MAX density matrix=1.00D-06.
 Requested convergence on             energy=1.00D-06.
 No special actions if energy rises.
 Integral accuracy reduced to 1.0D-05 until final iterations.
 Initial convergence to 1.0D-05 achieved.  Increase integral accuracy.
 SCF Done:  E(RB3LYP) =  -233.411120920     A.U. after   11 cycles
            NFock= 11  Conv=0.29D-08     -V/T= 2.0103
 Calling FoFJK, ICntrl=      2127 FMM=F ISym2X=0 I1Cent= 0 IOpClX= 0 NMat=1 NMatS=1 NMatT=0.
 ***** Axes restored to original set *****
 -------------------------------------------------------------------
 Center     Atomic                   Forces (Hartrees/Bohr)
 Number     Number              X              Y              Z
 -------------------------------------------------------------------
      1        6           0.002971734    0.002680826   -0.000205357
      2        6           0.000873175   -0.006041887    0.000378822
      3        6          -0.001697939    0.007382901   -0.000454791
      4        6           0.001696985   -0.007386264    0.000456663
      5        6          -0.000876151    0.006040888   -0.000378657
      6        6          -0.002972847   -0.002679811    0.000207976
      7        1           0.000047081   -0.000795700    0.000050705
      8        1          -0.000690221   -0.000504342    0.000040019
      9        1           0.000377405    0.001253202   -0.000085825
     10        1           0.000352701   -0.001780583    0.000109497
     11        1          -0.000351075    0.001781395   -0.000111628
     12        1          -0.000375178   -0.001252842    0.000084126
     13        1           0.000689703    0.000504396   -0.000040766
     14        1          -0.000045374    0.000797820   -0.000050784
 -------------------------------------------------------------------
 Cartesian Forces:  Max     0.007386264 RMS     0.002365302

 GradGradGradGradGradGradGradGradGradGradGradGradGradGradGradGradGradGrad
 Berny optimization.
 Using GEDIIS/GDIIS optimizer.
 FormGI is forming the generalized inverse of G from B-inverse, IUseBI=4.
 Internal  Forces:  Max     0.004898673 RMS     0.001317556
 Search for a local minimum.
 Step number   2 out of a maximum of   61
 All quantities printed in internal units (Hartrees-Bohrs-Radians)
 Mixed Optimization -- RFO/linear search
 Update second derivatives using D2CorX and points    1    2
 DE= -3.76D-03 DEPred=-3.63D-03 R= 1.03D+00
 TightC=F SS=  1.41D+00  RLast= 1.72D-01 DXNew= 5.0454D-01 5.1707D-01
 Trust test= 1.03D+00 RLast= 1.72D-01 DXMaxT set to 5.05D-01
 ITU=  1  0
 Use linear search instead of GDIIS.
     Eigenvalues ---    0.01066   0.01066   0.02003   0.02003   0.02032
     Eigenvalues ---    0.02032   0.02889   0.02948   0.02948   0.02949
     Eigenvalues ---    0.02949   0.15514   0.16000   0.16000   0.16000
     Eigenvalues ---    0.16000   0.16000   0.16000   0.16475   0.20864
     Eigenvalues ---    0.22000   0.22000   0.22022   0.32736   0.34879
     Eigenvalues ---    0.35077   0.35144   0.35191   0.35245   0.35272
     Eigenvalues ---    0.35333   0.35371   0.35460   0.57696   0.58340
     Eigenvalues ---    0.62176
 RFO step:  Lambda=-2.46491112D-04 EMin= 1.06598463D-02
 Quartic linear search produced a step of  0.07207.
 Iteration  1 RMS(Cart)=  0.00603950 RMS(Int)=  0.00001281
 Iteration  2 RMS(Cart)=  0.00002473 RMS(Int)=  0.00000002
 Iteration  3 RMS(Cart)=  0.00000000 RMS(Int)=  0.00000002
 Variable       Old X    -DE/DX   Delta X   Delta X   Delta X     New X
                                 (Linear)    (Quad)   (Total)
    R1        2.54135  -0.00267   0.00134  -0.00560  -0.00426   2.53709
    R2        2.05126  -0.00053   0.00004  -0.00162  -0.00159   2.04967
    R3        2.05188   0.00063  -0.00004   0.00192   0.00189   2.05377
    R4        2.75484  -0.00490  -0.00266  -0.01362  -0.01628   2.73856
    R5        2.05530   0.00130   0.00012   0.00389   0.00401   2.05931
    R6        2.55821  -0.00286   0.00194  -0.00637  -0.00443   2.55378
    R7        2.05487   0.00171  -0.00004   0.00523   0.00519   2.06006
    R8        2.75485  -0.00490  -0.00266  -0.01363  -0.01629   2.73856
    R9        2.05486   0.00171  -0.00005   0.00524   0.00519   2.06006
   R10        2.54135  -0.00266   0.00134  -0.00560  -0.00426   2.53709
   R11        2.05530   0.00130   0.00012   0.00389   0.00401   2.05931
   R12        2.05188   0.00063  -0.00003   0.00192   0.00189   2.05377
   R13        2.05126  -0.00053   0.00003  -0.00162  -0.00159   2.04967
    A1        2.12040   0.00042   0.00191   0.00175   0.00366   2.12407
    A2        2.11642   0.00039   0.00012   0.00252   0.00265   2.11907
    A3        2.04636  -0.00081  -0.00203  -0.00428  -0.00631   2.04005
    A4        2.16500   0.00093   0.00368   0.00251   0.00619   2.17119
    A5        2.08345  -0.00028   0.00052  -0.00135  -0.00083   2.08263
    A6        2.03473  -0.00064  -0.00420  -0.00116  -0.00536   2.02937
    A7        2.16429   0.00066   0.00387   0.00110   0.00496   2.16925
    A8        2.03351   0.00032  -0.00346   0.00462   0.00116   2.03467
    A9        2.08539  -0.00098  -0.00041  -0.00572  -0.00613   2.07927
   A10        2.16419   0.00067   0.00388   0.00115   0.00503   2.16922
   A11        2.08543  -0.00098  -0.00041  -0.00574  -0.00615   2.07928
   A12        2.03357   0.00031  -0.00347   0.00458   0.00112   2.03469
   A13        2.16508   0.00092   0.00368   0.00246   0.00614   2.17122
   A14        2.03466  -0.00064  -0.00420  -0.00112  -0.00532   2.02934
   A15        2.08344  -0.00028   0.00052  -0.00134  -0.00082   2.08262
   A16        2.11645   0.00038   0.00012   0.00251   0.00263   2.11907
   A17        2.12036   0.00042   0.00191   0.00178   0.00369   2.12405
   A18        2.04638  -0.00081  -0.00204  -0.00428  -0.00632   2.04006
    D1       -3.14158  -0.00000  -0.00000  -0.00000  -0.00000  -3.14159
    D2        0.00000  -0.00000   0.00000  -0.00000  -0.00000   0.00000
    D3        0.00002  -0.00000   0.00000  -0.00001  -0.00001   0.00001
    D4       -3.14158  -0.00000   0.00000  -0.00001  -0.00001  -3.14159
    D5        3.14150   0.00000   0.00001   0.00006   0.00007   3.14157
    D6       -0.00008   0.00000   0.00000   0.00006   0.00007  -0.00002
    D7       -0.00009   0.00000   0.00000   0.00006   0.00007  -0.00002
    D8        3.14151   0.00000   0.00000   0.00006   0.00006   3.14158
    D9       -3.14156  -0.00000  -0.00000  -0.00001  -0.00002  -3.14158
   D10        0.00002  -0.00000   0.00000  -0.00001  -0.00001   0.00001
   D11        0.00002  -0.00000   0.00000  -0.00001  -0.00001   0.00001
   D12       -3.14158  -0.00000   0.00000  -0.00001  -0.00001  -3.14159
   D13        3.14150   0.00000   0.00001   0.00006   0.00007   3.14157
   D14       -0.00008   0.00000   0.00000   0.00006   0.00007  -0.00002
   D15       -0.00008   0.00000   0.00000   0.00006   0.00006  -0.00002
   D16        3.14152   0.00000   0.00000   0.00006   0.00006   3.14158
   D17        0.00001  -0.00000   0.00000  -0.00001  -0.00001   0.00001
   D18       -3.14158  -0.00000  -0.00000  -0.00000  -0.00000  -3.14159
   D19       -3.14158  -0.00000   0.00000  -0.00001  -0.00001  -3.14159
   D20        0.00000  -0.00000   0.00000  -0.00000  -0.00000   0.00000
         Item               Value     Threshold  Converged?
 Maximum Force            0.004899     0.000450     NO 
 RMS     Force            0.001318     0.000300     NO 
 Maximum Displacement     0.017092     0.001800     NO 
 RMS     Displacement     0.006055     0.001200     NO 
 Predicted change in Energy=-1.401901D-04
 GradGradGradGradGradGradGradGradGradGradGradGradGradGradGradGradGradGrad

                          Input orientation:                          
 ---------------------------------------------------------------------
 Center     Atomic      Atomic             Coordinates (Angstroms)
 Number     Number       Type             X           Y           Z
 ---------------------------------------------------------------------
      1          6           0       -2.283240    1.235094    0.018397
      2          6           0       -1.022981    1.695849   -0.025725
      3          6           0        0.157583    0.856343    0.014732
      4          6           0        1.425225    1.322584   -0.029852
      5          6           0        2.605764    0.483041    0.010593
      6          6           0        3.866047    0.943726   -0.033572
      7          1           0       -3.136220    1.904243   -0.014868
      8          1           0       -2.495378    0.171551    0.089271
      9          1           0       -0.849349    2.769319   -0.096796
     10          1           0       -0.010405   -0.218423    0.085835
     11          1           0        1.593224    2.397347   -0.100948
     12          1           0        2.432075   -0.590419    0.081685
     13          1           0        4.078250    2.007254   -0.104468
     14          1           0        4.718983    0.274520   -0.000326
 ---------------------------------------------------------------------
                    Distance matrix (angstroms):
                    1          2          3          4          5
     1  C    0.000000
     2  C    1.342571   0.000000
     3  C    2.470037   1.449186   0.000000
     4  C    3.709811   2.476500   1.351401   0.000000
     5  C    4.946514   3.826226   2.476481   1.449186   0.000000
     6  C    6.156405   4.946549   3.709808   2.470053   1.342570
     7  H    1.084639   2.123517   3.456604   4.598405   5.915306
     8  H    1.086807   2.122419   2.740930   4.087810   5.111248
     9  H    2.103131   1.089741   2.164677   2.696518   4.144442
    10  H    2.698710   2.168454   1.090136   2.109293   2.709622
    11  H    4.048709   2.709665   2.109298   1.090134   2.168466
    12  H    5.056748   4.144390   2.696464   2.164663   1.089742
    13  H    6.409359   5.111333   4.087839   2.740964   2.122422
    14  H    7.067827   5.915316   4.598382   3.456610   2.123510
                    6          7          8          9         10
     6  C    0.000000
     7  H    7.067863   0.000000
     8  H    6.409295   1.850337   0.000000
     9  H    5.056851   2.446395   3.080979   0.000000
    10  H    4.048670   3.779758   2.515389   3.108662   0.000000
    11  H    2.698755   4.755859   4.659078   2.470737   3.073884
    12  H    2.103130   6.102342   4.986025   4.699727   2.470650
    13  H    1.086806   7.215762   6.827878   4.986184   4.659072
    14  H    1.084639   8.022495   7.215652   6.102430   4.755789
                   11         12         13         14
    11  H    0.000000
    12  H    3.108660   0.000000
    13  H    2.515460   3.080981   0.000000
    14  H    3.779800   2.446383   1.850338   0.000000
 Stoichiometry    C6H8
 Framework group  C1[X(C6H8)]
 Deg. of freedom    36
 Full point group                 C1      NOp   1
 Largest Abelian subgroup         C1      NOp   1
 Largest concise Abelian subgroup C1      NOp   1
                         Standard orientation:                         
 ---------------------------------------------------------------------
 Center     Atomic      Atomic             Coordinates (Angstroms)
 Number     Number       Type             X           Y           Z
 ---------------------------------------------------------------------
      1          6           0        3.073624   -0.167735    0.000017
      2          6           0        1.866478    0.419883   -0.000007
      3          6           0        0.606966   -0.296894   -0.000014
      4          6           0       -0.606969    0.296946   -0.000014
      5          6           0       -1.866460   -0.419868   -0.000006
      6          6           0       -3.073638    0.167684    0.000017
      7          1           0        3.989982    0.412548    0.000028
      8          1           0        3.176989   -1.249615    0.000028
      9          1           0        1.802426    1.507740   -0.000017
     10          1           0        0.665271   -1.385469   -0.000018
     11          1           0       -0.665286    1.385519   -0.000017
     12          1           0       -1.802352   -1.507723   -0.000017
     13          1           0       -3.177069    1.249558    0.000028
     14          1           0       -3.989959   -0.412658    0.000028
 ---------------------------------------------------------------------
 Rotational constants (GHZ):          26.6539156           1.3332399           1.2697276
 Standard basis: 6-31G(d,p) (6D, 7F)
 There are   130 symmetry adapted cartesian basis functions of A   symmetry.
 There are   130 symmetry adapted basis functions of A   symmetry.
   130 basis functions,   224 primitive gaussians,   130 cartesian basis functions
    22 alpha electrons       22 beta electrons
       nuclear repulsion energy       193.7762158546 Hartrees.
 NAtoms=   14 NActive=   14 NUniq=   14 SFac= 1.00D+00 NAtFMM=   60 NAOKFM=F Big=F
 Integral buffers will be    131072 words long.
 Raffenetti 2 integral format.
 Two-electron integral symmetry is turned on.
 One-electron integrals computed using PRISM.
 NBasis=   130 RedAO= T EigKep=  2.11D-03  NBF=   130
 NBsUse=   130 1.00D-06 EigRej= -1.00D+00 NBFU=   130
 Initial guess from the checkpoint file:  "checkpoint.chk"
 B after Tr=     0.000000    0.000000   -0.000000
         Rot=    1.000000    0.000000   -0.000000   -0.000231 Ang=  -0.03 deg.
 Keep R1 ints in memory in canonical form, NReq=40081234.
 Requested convergence on RMS density matrix=1.00D-08 within 128 cycles.
 Requested convergence on MAX density matrix=1.00D-06.
 Requested convergence on             energy=1.00D-06.
 No special actions if energy rises.
 SCF Done:  E(RB3LYP) =  -233.411259461     A.U. after    9 cycles
            NFock=  9  Conv=0.33D-08     -V/T= 2.0101
 Calling FoFJK, ICntrl=      2127 FMM=F ISym2X=0 I1Cent= 0 IOpClX= 0 NMat=1 NMatS=1 NMatT=0.
 ***** Axes restored to original set *****
 -------------------------------------------------------------------
 Center     Atomic                   Forces (Hartrees/Bohr)
 Number     Number              X              Y              Z
 -------------------------------------------------------------------
      1        6           0.000214564    0.000331068   -0.000023667
      2        6          -0.000098582   -0.000021392    0.000002537
      3        6          -0.000453616    0.000084879    0.000000019
      4        6           0.000453054   -0.000085506    0.000000561
      5        6           0.000097453    0.000020311   -0.000002400
      6        6          -0.000214758   -0.000330701    0.000023857
      7        1          -0.000129390   -0.000055937    0.000005220
      8        1          -0.000140507   -0.000038274    0.000004024
      9        1          -0.000250086    0.000169469   -0.000008182
     10        1           0.000349967   -0.000232726    0.000010626
     11        1          -0.000349494    0.000233339   -0.000011322
     12        1           0.000251212   -0.000169250    0.000007855
     13        1           0.000140297    0.000038310   -0.000004132
     14        1           0.000129887    0.000056409   -0.000004995
 -------------------------------------------------------------------
 Cartesian Forces:  Max     0.000453616 RMS     0.000181061

 GradGradGradGradGradGradGradGradGradGradGradGradGradGradGradGradGradGrad
 Berny optimization.
 Using GEDIIS/GDIIS optimizer.
 FormGI is forming the generalized inverse of G from B-inverse, IUseBI=4.
 Internal  Forces:  Max     0.000552695 RMS     0.000202074
 Search for a local minimum.
 Step number   3 out of a maximum of   61
 All quantities printed in internal units (Hartrees-Bohrs-Radians)
 Mixed Optimization -- En-DIIS/RFO-DIIS
 Update second derivatives using D2CorX and points    1    2    3
 DE= -1.39D-04 DEPred=-1.40D-04 R= 9.88D-01
 TightC=F SS=  1.41D+00  RLast= 3.27D-02 DXNew= 8.4853D-01 9.8022D-02
 Trust test= 9.88D-01 RLast= 3.27D-02 DXMaxT set to 5.05D-01
 ITU=  1  1  0
 Use linear search instead of GDIIS.
     Eigenvalues ---    0.01066   0.01066   0.01999   0.01999   0.02034
     Eigenvalues ---    0.02034   0.02889   0.02948   0.02948   0.02949
     Eigenvalues ---    0.02949   0.14235   0.16000   0.16000   0.16000
     Eigenvalues ---    0.16000   0.16000   0.16026   0.16673   0.20674
     Eigenvalues ---    0.22000   0.22000   0.22087   0.34700   0.34879
     Eigenvalues ---    0.35077   0.35147   0.35191   0.35265   0.35272
     Eigenvalues ---    0.35371   0.35383   0.36483   0.57759   0.58340
     Eigenvalues ---    0.62733
 RFO step:  Lambda=-9.12076547D-06 EMin= 1.06598437D-02
 Quartic linear search produced a step of -0.01651.
 Iteration  1 RMS(Cart)=  0.00202851 RMS(Int)=  0.00000163
 Iteration  2 RMS(Cart)=  0.00000170 RMS(Int)=  0.00000000
 Iteration  3 RMS(Cart)=  0.00000000 RMS(Int)=  0.00000000
 Variable       Old X    -DE/DX   Delta X   Delta X   Delta X     New X
                                 (Linear)    (Quad)   (Total)
    R1        2.53709  -0.00003   0.00007  -0.00020  -0.00013   2.53696
    R2        2.04967   0.00007   0.00003   0.00012   0.00015   2.04982
    R3        2.05377   0.00007  -0.00003   0.00026   0.00023   2.05399
    R4        2.73856   0.00055   0.00027   0.00083   0.00110   2.73966
    R5        2.05931   0.00013  -0.00007   0.00052   0.00046   2.05977
    R6        2.55378   0.00039   0.00007   0.00052   0.00060   2.55437
    R7        2.06006   0.00018  -0.00009   0.00071   0.00062   2.06068
    R8        2.73856   0.00055   0.00027   0.00083   0.00110   2.73966
    R9        2.06006   0.00018  -0.00009   0.00071   0.00062   2.06068
   R10        2.53709  -0.00003   0.00007  -0.00020  -0.00013   2.53696
   R11        2.05931   0.00013  -0.00007   0.00052   0.00046   2.05977
   R12        2.05377   0.00007  -0.00003   0.00026   0.00023   2.05399
   R13        2.04967   0.00007   0.00003   0.00012   0.00015   2.04982
    A1        2.12407   0.00008  -0.00006   0.00068   0.00062   2.12469
    A2        2.11907   0.00009  -0.00004   0.00069   0.00064   2.11971
    A3        2.04005  -0.00017   0.00010  -0.00137  -0.00126   2.03879
    A4        2.17119   0.00023  -0.00010   0.00135   0.00125   2.17244
    A5        2.08263  -0.00040   0.00001  -0.00226  -0.00225   2.08038
    A6        2.02937   0.00017   0.00009   0.00091   0.00100   2.03037
    A7        2.16925   0.00008  -0.00008   0.00061   0.00053   2.16978
    A8        2.03467   0.00036  -0.00002   0.00222   0.00220   2.03687
    A9        2.07927  -0.00043   0.00010  -0.00284  -0.00274   2.07653
   A10        2.16922   0.00008  -0.00008   0.00063   0.00055   2.16977
   A11        2.07928  -0.00043   0.00010  -0.00284  -0.00274   2.07653
   A12        2.03469   0.00035  -0.00002   0.00221   0.00219   2.03688
   A13        2.17122   0.00023  -0.00010   0.00133   0.00123   2.17245
   A14        2.02934   0.00017   0.00009   0.00093   0.00102   2.03036
   A15        2.08262  -0.00040   0.00001  -0.00226  -0.00225   2.08038
   A16        2.11907   0.00009  -0.00004   0.00068   0.00064   2.11971
   A17        2.12405   0.00008  -0.00006   0.00069   0.00063   2.12468
   A18        2.04006  -0.00017   0.00010  -0.00137  -0.00127   2.03879
    D1       -3.14159  -0.00000   0.00000  -0.00001  -0.00001  -3.14159
    D2        0.00000  -0.00000   0.00000  -0.00000  -0.00000   0.00000
    D3        0.00001  -0.00000   0.00000  -0.00000  -0.00000   0.00000
    D4       -3.14159  -0.00000   0.00000   0.00000   0.00000  -3.14159
    D5        3.14157   0.00000  -0.00000   0.00002   0.00002   3.14159
    D6       -0.00002   0.00000  -0.00000   0.00002   0.00002  -0.00000
    D7       -0.00002   0.00000  -0.00000   0.00002   0.00001  -0.00000
    D8        3.14158   0.00000  -0.00000   0.00001   0.00001   3.14159
    D9       -3.14158  -0.00000   0.00000  -0.00001  -0.00001  -3.14159
   D10        0.00001  -0.00000   0.00000  -0.00001  -0.00001   0.00000
   D11        0.00001  -0.00000   0.00000  -0.00001  -0.00001   0.00000
   D12       -3.14159  -0.00000   0.00000  -0.00001  -0.00000  -3.14159
   D13        3.14157   0.00000  -0.00000   0.00002   0.00002   3.14159
   D14       -0.00002   0.00000  -0.00000   0.00001   0.00001  -0.00000
   D15       -0.00002   0.00000  -0.00000   0.00002   0.00002  -0.00000
   D16        3.14158   0.00000  -0.00000   0.00001   0.00001   3.14159
   D17        0.00001  -0.00000   0.00000  -0.00000  -0.00000   0.00000
   D18       -3.14159  -0.00000   0.00000  -0.00001  -0.00001  -3.14159
   D19       -3.14159  -0.00000   0.00000   0.00000   0.00000  -3.14159
   D20        0.00000  -0.00000   0.00000  -0.00000  -0.00000   0.00000
         Item               Value     Threshold  Converged?
 Maximum Force            0.000553     0.000450     NO 
 RMS     Force            0.000202     0.000300     YES
 Maximum Displacement     0.005371     0.001800     NO 
 RMS     Displacement     0.002029     0.001200     NO 
 Predicted change in Energy=-4.595994D-06
 GradGradGradGradGradGradGradGradGradGradGradGradGradGradGradGradGradGrad

                          Input orientation:                          
 ---------------------------------------------------------------------
 Center     Atomic      Atomic             Coordinates (Angstroms)
 Number     Number       Type             X           Y           Z
 ---------------------------------------------------------------------
      1          6           0       -2.284568    1.235779    0.018380
      2          6           0       -1.024026    1.695558   -0.025703
      3          6           0        0.157422    0.856293    0.014724
      4          6           0        1.425378    1.322591   -0.029868
      5          6           0        2.606818    0.483314    0.010555
      6          6           0        3.867368    0.943068   -0.033533
      7          1           0       -3.137519    1.905090   -0.014887
      8          1           0       -2.498220    0.172417    0.089270
      9          1           0       -0.851961    2.769524   -0.096796
     10          1           0       -0.007712   -0.219248    0.085841
     11          1           0        1.590516    2.398131   -0.100983
     12          1           0        2.434733   -0.590649    0.081652
     13          1           0        4.081042    2.006425   -0.104425
     14          1           0        4.720304    0.273737   -0.000270
 ---------------------------------------------------------------------
                    Distance matrix (angstroms):
                    1          2          3          4          5
     1  C    0.000000
     2  C    1.342500   0.000000
     3  C    2.471303   1.449766   0.000000
     4  C    3.711276   2.477641   1.351716   0.000000
     5  C    4.948932   3.828039   2.477634   1.449766   0.000000
     6  C    6.159115   4.948944   3.711275   2.471309   1.342499
     7  H    1.084717   2.123882   3.457961   4.599952   5.917728
     8  H    1.086927   2.122833   2.743297   4.090442   5.115102
     9  H    2.101905   1.089984   2.166043   2.698956   4.147461
    10  H    2.702911   2.170672   1.090465   2.108176   2.708326
    11  H    4.047417   2.708340   2.108177   1.090465   2.170676
    12  H    5.060795   4.147443   2.698938   2.166039   1.089984
    13  H    6.413266   5.115131   4.090452   2.743308   2.122834
    14  H    7.070651   5.917732   4.599944   3.457963   2.123879
                    6          7          8          9         10
     6  C    0.000000
     7  H    7.070664   0.000000
     8  H    6.413244   1.849787   0.000000
     9  H    5.060831   2.444940   3.080544   0.000000
    10  H    4.047404   3.783999   2.521119   3.111088   0.000000
    11  H    2.702927   4.754452   4.659158   2.470555   3.072443
    12  H    2.101904   6.106393   4.991628   4.703718   2.470526
    13  H    1.086927   7.219828   6.832847   4.991683   4.659156
    14  H    1.084717   8.025392   7.219790   6.106423   4.754428
                   11         12         13         14
    11  H    0.000000
    12  H    3.111087   0.000000
    13  H    2.521144   3.080545   0.000000
    14  H    3.784014   2.444936   1.849787   0.000000
 Stoichiometry    C6H8
 Framework group  C1[X(C6H8)]
 Deg. of freedom    36
 Full point group                 C1      NOp   1
 Largest Abelian subgroup         C1      NOp   1
 Largest concise Abelian subgroup C1      NOp   1
                         Standard orientation:                         
 ---------------------------------------------------------------------
 Center     Atomic      Atomic             Coordinates (Angstroms)
 Number     Number       Type             X           Y           Z
 ---------------------------------------------------------------------
      1          6           0        3.074989   -0.167639    0.000003
      2          6           0        1.867550    0.419214   -0.000001
      3          6           0        0.607076   -0.297045   -0.000003
      4          6           0       -0.607078    0.297063   -0.000003
      5          6           0       -1.867544   -0.419209   -0.000001
      6          6           0       -3.074994    0.167621    0.000003
      7          1           0        3.991422    0.412674    0.000006
      8          1           0        3.179719   -1.249509    0.000004
      9          1           0        1.805268    1.507417   -0.000002
     10          1           0        0.662304   -1.386111   -0.000004
     11          1           0       -0.662308    1.386128   -0.000004
     12          1           0       -1.805242   -1.507411   -0.000002
     13          1           0       -3.179747    1.249488    0.000004
     14          1           0       -3.991413   -0.412712    0.000006
 ---------------------------------------------------------------------
 Rotational constants (GHZ):          26.6690593           1.3319348           1.2685781
 Standard basis: 6-31G(d,p) (6D, 7F)
 There are   130 symmetry adapted cartesian basis functions of A   symmetry.
 There are   130 symmetry adapted basis functions of A   symmetry.
   130 basis functions,   224 primitive gaussians,   130 cartesian basis functions
    22 alpha electrons       22 beta electrons
       nuclear repulsion energy       193.7164123710 Hartrees.
 NAtoms=   14 NActive=   14 NUniq=   14 SFac= 1.00D+00 NAtFMM=   60 NAOKFM=F Big=F
 Integral buffers will be    131072 words long.
 Raffenetti 2 integral format.
 Two-electron integral symmetry is turned on.
 One-electron integrals computed using PRISM.
 NBasis=   130 RedAO= T EigKep=  2.12D-03  NBF=   130
 NBsUse=   130 1.00D-06 EigRej= -1.00D+00 NBFU=   130
 Initial guess from the checkpoint file:  "checkpoint.chk"
 B after Tr=    -0.000000   -0.000000   -0.000000
         Rot=    1.000000    0.000000   -0.000000    0.000058 Ang=   0.01 deg.
 Keep R1 ints in memory in canonical form, NReq=40081234.
 Requested convergence on RMS density matrix=1.00D-08 within 128 cycles.
 Requested convergence on MAX density matrix=1.00D-06.
 Requested convergence on             energy=1.00D-06.
 No special actions if energy rises.
 SCF Done:  E(RB3LYP) =  -233.411264409     A.U. after    7 cycles
            NFock=  7  Conv=0.85D-08     -V/T= 2.0102
 Calling FoFJK, ICntrl=      2127 FMM=F ISym2X=0 I1Cent= 0 IOpClX= 0 NMat=1 NMatS=1 NMatT=0.
 ***** Axes restored to original set *****
 -------------------------------------------------------------------
 Center     Atomic                   Forces (Hartrees/Bohr)
 Number     Number              X              Y              Z
 -------------------------------------------------------------------
      1        6           0.000077054   -0.000014998    0.000000127
      2        6           0.000101471    0.000057470   -0.000004792
      3        6          -0.000177674   -0.000145771    0.000011451
      4        6           0.000177552    0.000145501   -0.000011379
      5        6          -0.000102163   -0.000057906    0.000004974
      6        6          -0.000076900    0.000015212   -0.000000047
      7        1          -0.000017392    0.000004309   -0.000000062
      8        1          -0.000051100    0.000002894    0.000000366
      9        1          -0.000042441   -0.000014384    0.000001365
     10        1           0.000046225    0.000021579   -0.000001999
     11        1          -0.000046028   -0.000021427    0.000001829
     12        1           0.000042795    0.000014485   -0.000001472
     13        1           0.000051059   -0.000002793   -0.000000442
     14        1           0.000017541   -0.000004171    0.000000082
 -------------------------------------------------------------------
 Cartesian Forces:  Max     0.000177674 RMS     0.000061844

 GradGradGradGradGradGradGradGradGradGradGradGradGradGradGradGradGradGrad
 Berny optimization.
 Using GEDIIS/GDIIS optimizer.
 FormGI is forming the generalized inverse of G from B-inverse, IUseBI=4.
 Internal  Forces:  Max     0.000090833 RMS     0.000034674
 Search for a local minimum.
 Step number   4 out of a maximum of   61
 All quantities printed in internal units (Hartrees-Bohrs-Radians)
 Mixed Optimization -- En-DIIS/RFO-DIIS
 Swapping is turned off.
 Update second derivatives using D2CorX and points    1    2    3    4
 DE= -4.95D-06 DEPred=-4.60D-06 R= 1.08D+00
 TightC=F SS=  1.41D+00  RLast= 7.03D-03 DXNew= 8.4853D-01 2.1085D-02
 Trust test= 1.08D+00 RLast= 7.03D-03 DXMaxT set to 5.05D-01
 ITU=  1  1  1  0
     Eigenvalues ---    0.01066   0.01066   0.01997   0.01997   0.02032
     Eigenvalues ---    0.02032   0.02889   0.02948   0.02948   0.02949
     Eigenvalues ---    0.02949   0.12638   0.15877   0.16000   0.16000
     Eigenvalues ---    0.16000   0.16000   0.16046   0.16519   0.20914
     Eigenvalues ---    0.22000   0.22000   0.22107   0.34765   0.34879
     Eigenvalues ---    0.35077   0.35149   0.35191   0.35253   0.35272
     Eigenvalues ---    0.35371   0.35448   0.38448   0.57366   0.58340
     Eigenvalues ---    0.63002
 En-DIIS/RFO-DIIS/Sim-DIIS IScMMF=       -3 using points:     4    3
 RFO step:  Lambda=-3.29365279D-07.
 DidBck=F Rises=F RFO-DIIS coefs:    1.13184   -0.13184
 Iteration  1 RMS(Cart)=  0.00039468 RMS(Int)=  0.00000010
 Iteration  2 RMS(Cart)=  0.00000011 RMS(Int)=  0.00000000
 Variable       Old X    -DE/DX   Delta X   Delta X   Delta X     New X
                                 (Linear)    (Quad)   (Total)
    R1        2.53696  -0.00001  -0.00002   0.00001  -0.00001   2.53695
    R2        2.04982   0.00002   0.00002   0.00003   0.00005   2.04987
    R3        2.05399   0.00001   0.00003   0.00000   0.00003   2.05403
    R4        2.73966  -0.00003   0.00014  -0.00026  -0.00011   2.73955
    R5        2.05977  -0.00002   0.00006  -0.00011  -0.00005   2.05972
    R6        2.55437   0.00009   0.00008   0.00012   0.00020   2.55457
    R7        2.06068  -0.00003   0.00008  -0.00015  -0.00006   2.06062
    R8        2.73966  -0.00003   0.00014  -0.00026  -0.00011   2.73955
    R9        2.06068  -0.00003   0.00008  -0.00015  -0.00006   2.06062
   R10        2.53696  -0.00000  -0.00002   0.00001  -0.00001   2.53695
   R11        2.05977  -0.00002   0.00006  -0.00011  -0.00005   2.05972
   R12        2.05399   0.00001   0.00003   0.00000   0.00003   2.05403
   R13        2.04982   0.00002   0.00002   0.00003   0.00005   2.04987
    A1        2.12469  -0.00002   0.00008  -0.00021  -0.00013   2.12456
    A2        2.11971   0.00006   0.00008   0.00037   0.00046   2.12017
    A3        2.03879  -0.00004  -0.00017  -0.00016  -0.00033   2.03846
    A4        2.17244   0.00001   0.00016  -0.00002   0.00014   2.17258
    A5        2.08038  -0.00005  -0.00030  -0.00008  -0.00037   2.08000
    A6        2.03037   0.00003   0.00013   0.00010   0.00023   2.03060
    A7        2.16978  -0.00008   0.00007  -0.00043  -0.00036   2.16943
    A8        2.03687   0.00008   0.00029   0.00025   0.00054   2.03741
    A9        2.07653  -0.00000  -0.00036   0.00018  -0.00018   2.07635
   A10        2.16977  -0.00008   0.00007  -0.00042  -0.00035   2.16942
   A11        2.07653  -0.00000  -0.00036   0.00018  -0.00018   2.07635
   A12        2.03688   0.00008   0.00029   0.00024   0.00053   2.03741
   A13        2.17245   0.00001   0.00016  -0.00003   0.00013   2.17258
   A14        2.03036   0.00003   0.00013   0.00010   0.00024   2.03060
   A15        2.08038  -0.00005  -0.00030  -0.00008  -0.00037   2.08000
   A16        2.11971   0.00006   0.00008   0.00037   0.00046   2.12017
   A17        2.12468  -0.00002   0.00008  -0.00021  -0.00013   2.12456
   A18        2.03879  -0.00004  -0.00017  -0.00016  -0.00033   2.03846
    D1       -3.14159  -0.00000  -0.00000   0.00000  -0.00000  -3.14159
    D2        0.00000  -0.00000  -0.00000  -0.00000  -0.00000   0.00000
    D3        0.00000  -0.00000  -0.00000  -0.00000  -0.00000   0.00000
    D4       -3.14159  -0.00000   0.00000  -0.00000  -0.00000   3.14159
    D5        3.14159   0.00000   0.00000   0.00000   0.00000   3.14159
    D6       -0.00000   0.00000   0.00000   0.00000   0.00000  -0.00000
    D7       -0.00000   0.00000   0.00000   0.00000   0.00000  -0.00000
    D8        3.14159   0.00000   0.00000   0.00000   0.00000   3.14159
    D9       -3.14159  -0.00000  -0.00000  -0.00000  -0.00000   3.14159
   D10        0.00000  -0.00000  -0.00000  -0.00000  -0.00000   0.00000
   D11        0.00000  -0.00000  -0.00000  -0.00000  -0.00000   0.00000
   D12       -3.14159  -0.00000  -0.00000  -0.00000  -0.00000  -3.14159
   D13        3.14159   0.00000   0.00000   0.00000   0.00000   3.14159
   D14       -0.00000   0.00000   0.00000   0.00000   0.00000  -0.00000
   D15       -0.00000   0.00000   0.00000   0.00000   0.00000  -0.00000
   D16        3.14159   0.00000   0.00000   0.00000   0.00000   3.14159
   D17        0.00000  -0.00000  -0.00000  -0.00000  -0.00000   0.00000
   D18       -3.14159  -0.00000  -0.00000   0.00000  -0.00000  -3.14159
   D19       -3.14159  -0.00000   0.00000  -0.00000  -0.00000   3.14159
   D20        0.00000  -0.00000  -0.00000  -0.00000  -0.00000   0.00000
         Item               Value     Threshold  Converged?
 Maximum Force            0.000091     0.000450     YES
 RMS     Force            0.000035     0.000300     YES
 Maximum Displacement     0.001227     0.001800     YES
 RMS     Displacement     0.000395     0.001200     YES
 Predicted change in Energy=-1.646829D-07
 Optimization completed.
    -- Stationary point found.
                           ----------------------------
                           !   Optimized Parameters   !
                           ! (Angstroms and Degrees)  !
 --------------------------                            --------------------------
 ! Name  Definition              Value          Derivative Info.                !
 --------------------------------------------------------------------------------
 ! R1    R(1,2)                  1.3425         -DE/DX =    0.0                 !
 ! R2    R(1,7)                  1.0847         -DE/DX =    0.0                 !
 ! R3    R(1,8)                  1.0869         -DE/DX =    0.0                 !
 ! R4    R(2,3)                  1.4498         -DE/DX =    0.0                 !
 ! R5    R(2,9)                  1.09           -DE/DX =    0.0                 !
 ! R6    R(3,4)                  1.3517         -DE/DX =    0.0001              !
 ! R7    R(3,10)                 1.0905         -DE/DX =    0.0                 !
 ! R8    R(4,5)                  1.4498         -DE/DX =    0.0                 !
 ! R9    R(4,11)                 1.0905         -DE/DX =    0.0                 !
 ! R10   R(5,6)                  1.3425         -DE/DX =    0.0                 !
 ! R11   R(5,12)                 1.09           -DE/DX =    0.0                 !
 ! R12   R(6,13)                 1.0869         -DE/DX =    0.0                 !
 ! R13   R(6,14)                 1.0847         -DE/DX =    0.0                 !
 ! A1    A(2,1,7)              121.7356         -DE/DX =    0.0                 !
 ! A2    A(2,1,8)              121.4504         -DE/DX =    0.0001              !
 ! A3    A(7,1,8)              116.814          -DE/DX =    0.0                 !
 ! A4    A(1,2,3)              124.4716         -DE/DX =    0.0                 !
 ! A5    A(1,2,9)              119.1969         -DE/DX =    0.0                 !
 ! A6    A(3,2,9)              116.3315         -DE/DX =    0.0                 !
 ! A7    A(2,3,4)              124.3194         -DE/DX =   -0.0001              !
 ! A8    A(2,3,10)             116.7042         -DE/DX =    0.0001              !
 ! A9    A(4,3,10)             118.9764         -DE/DX =    0.0                 !
 ! A10   A(3,4,5)              124.3188         -DE/DX =   -0.0001              !
 ! A11   A(3,4,11)             118.9766         -DE/DX =    0.0                 !
 ! A12   A(5,4,11)             116.7046         -DE/DX =    0.0001              !
 ! A13   A(4,5,6)              124.4721         -DE/DX =    0.0                 !
 ! A14   A(4,5,12)             116.3311         -DE/DX =    0.0                 !
 ! A15   A(6,5,12)             119.1968         -DE/DX =    0.0                 !
 ! A16   A(5,6,13)             121.4506         -DE/DX =    0.0001              !
 ! A17   A(5,6,14)             121.7354         -DE/DX =    0.0                 !
 ! A18   A(13,6,14)            116.814          -DE/DX =    0.0                 !
 ! D1    D(7,1,2,3)           -179.9999         -DE/DX =    0.0                 !
 ! D2    D(7,1,2,9)              0.0            -DE/DX =    0.0                 !
 ! D3    D(8,1,2,3)              0.0001         -DE/DX =    0.0                 !
 ! D4    D(8,1,2,9)            180.0001         -DE/DX =    0.0                 !
 ! D5    D(1,2,3,4)            179.9998         -DE/DX =    0.0                 !
 ! D6    D(1,2,3,10)            -0.0002         -DE/DX =    0.0                 !
 ! D7    D(9,2,3,4)             -0.0002         -DE/DX =    0.0                 !
 ! D8    D(9,2,3,10)           179.9999         -DE/DX =    0.0                 !
 ! D9    D(2,3,4,5)            180.0002         -DE/DX =    0.0                 !
 ! D10   D(2,3,4,11)             0.0002         -DE/DX =    0.0                 !
 ! D11   D(10,3,4,5)             0.0002         -DE/DX =    0.0                 !
 ! D12   D(10,3,4,11)         -179.9999         -DE/DX =    0.0                 !
 ! D13   D(3,4,5,6)            179.9998         -DE/DX =    0.0                 !
 ! D14   D(3,4,5,12)            -0.0002         -DE/DX =    0.0                 !
 ! D15   D(11,4,5,6)            -0.0002         -DE/DX =    0.0                 !
 ! D16   D(11,4,5,12)          179.9999         -DE/DX =    0.0                 !
 ! D17   D(4,5,6,13)             0.0001         -DE/DX =    0.0                 !
 ! D18   D(4,5,6,14)          -179.9999         -DE/DX =    0.0                 !
 ! D19   D(12,5,6,13)          180.0001         -DE/DX =    0.0                 !
 ! D20   D(12,5,6,14)            0.0            -DE/DX =    0.0                 !
 --------------------------------------------------------------------------------
 GradGradGradGradGradGradGradGradGradGradGradGradGradGradGradGradGradGrad

                          Input orientation:                          
 ---------------------------------------------------------------------
 Center     Atomic      Atomic             Coordinates (Angstroms)
 Number     Number       Type             X           Y           Z
 ---------------------------------------------------------------------
      1          6           0       -2.284568    1.235779    0.018380
      2          6           0       -1.024026    1.695558   -0.025703
      3          6           0        0.157422    0.856293    0.014724
      4          6           0        1.425378    1.322591   -0.029868
      5          6           0        2.606818    0.483314    0.010555
      6          6           0        3.867368    0.943068   -0.033533
      7          1           0       -3.137519    1.905090   -0.014887
      8          1           0       -2.498220    0.172417    0.089270
      9          1           0       -0.851961    2.769524   -0.096796
     10          1           0       -0.007712   -0.219248    0.085841
     11          1           0        1.590516    2.398131   -0.100983
     12          1           0        2.434733   -0.590649    0.081652
     13          1           0        4.081042    2.006425   -0.104425
     14          1           0        4.720304    0.273737   -0.000270
 ---------------------------------------------------------------------
                    Distance matrix (angstroms):
                    1          2          3          4          5
     1  C    0.000000
     2  C    1.342500   0.000000
     3  C    2.471303   1.449766   0.000000
     4  C    3.711276   2.477641   1.351716   0.000000
     5  C    4.948932   3.828039   2.477634   1.449766   0.000000
     6  C    6.159115   4.948944   3.711275   2.471309   1.342499
     7  H    1.084717   2.123882   3.457961   4.599952   5.917728
     8  H    1.086927   2.122833   2.743297   4.090442   5.115102
     9  H    2.101905   1.089984   2.166043   2.698956   4.147461
    10  H    2.702911   2.170672   1.090465   2.108176   2.708326
    11  H    4.047417   2.708340   2.108177   1.090465   2.170676
    12  H    5.060795   4.147443   2.698938   2.166039   1.089984
    13  H    6.413266   5.115131   4.090452   2.743308   2.122834
[...]
 ! A10   A(3,4,5)              124.3188         -DE/DX =   -0.0001              !
 ! A11   A(3,4,11)             118.9766         -DE/DX =    0.0                 !
 ! A12   A(5,4,11)             116.7046         -DE/DX =    0.0001              !
 ! A13   A(4,5,6)              124.4721         -DE/DX =    0.0                 !
 ! A14   A(4,5,12)             116.3311         -DE/DX =    0.0                 !
 ! A15   A(6,5,12)             119.1968         -DE/DX =    0.0                 !
 ! A16   A(5,6,13)             121.4506         -DE/DX =    0.0001              !
 ! A17   A(5,6,14)             121.7354         -DE/DX =    0.0                 !
 ! A18   A(13,6,14)            116.814          -DE/DX =    0.0                 !
 ! D1    D(7,1,2,3)           -179.9999         -DE/DX =    0.0                 !
 ! D2    D(7,1,2,9)              0.0            -DE/DX =    0.0                 !
 ! D3    D(8,1,2,3)              0.0001         -DE/DX =    0.0                 !
 ! D4    D(8,1,2,9)            180.0001         -DE/DX =    0.0                 !
 ! D5    D(1,2,3,4)            179.9998         -DE/DX =    0.0                 !
 ! D6    D(1,2,3,10)            -0.0002         -DE/DX =    0.0                 !
 ! D7    D(9,2,3,4)             -0.0002         -DE/DX =    0.0                 !
 ! D8    D(9,2,3,10)           179.9999         -DE/DX =    0.0                 !
 ! D9    D(2,3,4,5)            180.0002         -DE/DX =    0.0                 !
 ! D10   D(2,3,4,11)             0.0002         -DE/DX =    0.0                 !
 ! D11   D(10,3,4,5)             0.0002         -DE/DX =    0.0                 !
 ! D12   D(10,3,4,11)         -179.9999         -DE/DX =    0.0                 !
 ! D13   D(3,4,5,6)            179.9998         -DE/DX =    0.0                 !
 ! D14   D(3,4,5,12)            -0.0002         -DE/DX =    0.0                 !
 ! D15   D(11,4,5,6)            -0.0002         -DE/DX =    0.0                 !
 ! D16   D(11,4,5,12)          179.9999         -DE/DX =    0.0                 !
 ! D17   D(4,5,6,13)             0.0001         -DE/DX =    0.0                 !
 ! D18   D(4,5,6,14)          -179.9999         -DE/DX =    0.0                 !
 ! D19   D(12,5,6,13)          180.0001         -DE/DX =    0.0                 !
 ! D20   D(12,5,6,14)            0.0            -DE/DX =    0.0                 !
 --------------------------------------------------------------------------------
 GradGradGradGradGradGradGradGradGradGradGradGradGradGradGradGradGradGrad


 ----------------------------------------------------------------------

 Electric dipole moment (input orientation):
 (Debye = 10**-18 statcoulomb cm , SI units = C m)
                  (au)            (Debye)         (10**-30 SI)
   Tot        0.000000D+00      0.000000D+00      0.000000D+00
   x          0.000000D+00      0.000000D+00      0.000000D+00
   y          0.000000D+00      0.000000D+00      0.000000D+00
   z          0.000000D+00      0.000000D+00      0.000000D+00

 Dipole polarizability, Alpha (input orientation).
 (esu units = cm**3 , SI units = C**2 m**2 J**-1)
 Alpha(0;0):
               (au)            (10**-24 esu)      (10**-40 SI)
   iso        0.787335D+02      0.116671D+02      0.129814D+02
   aniso      0.120667D+03      0.178810D+02      0.198953D+02
   xx         0.156795D+03      0.232346D+02      0.258520D+02
   yx         0.194708D+01      0.288528D+00      0.321030D+00
   yy         0.561977D+02      0.832764D+01      0.926575D+01
   zx        -0.166346D+01     -0.246500D+00     -0.274268D+00
   zy        -0.215566D+01     -0.319436D+00     -0.355420D+00
   zz         0.232076D+02      0.343901D+01      0.382642D+01

 ----------------------------------------------------------------------

 Dipole orientation:
     6          0.35615601          1.10584101          4.76899492
     6          0.63158526          2.52890261          2.68688408
     6          0.44501803          1.57934613          0.12382472
     6          0.72339593          3.01763871         -1.96869486
     6          0.53681569          2.06805779         -4.53174490
     6          0.81222273          3.49108289         -6.61388235
     1          0.51304496          1.90534881          6.64993187
     1         -0.03553984         -0.90679077          4.64741473
     1          1.02321955          4.54091592          2.88956333
     1          0.05346613         -0.43221778         -0.09227823
     1          1.11495120          5.02920186         -1.75259865
     1          0.14518572          0.05603914         -4.73438697
     1          1.20391665          5.50371734         -6.49234593
     1          0.65531687          2.69153585         -8.49480112

 Electric dipole moment (dipole orientation):
 (Debye = 10**-18 statcoulomb cm , SI units = C m)
                  (au)            (Debye)         (10**-30 SI)
   Tot        0.000000D+00      0.000000D+00      0.000000D+00
   x          0.000000D+00      0.000000D+00      0.000000D+00
   y          0.000000D+00      0.000000D+00      0.000000D+00
   z          0.000000D+00      0.000000D+00      0.000000D+00

 Dipole polarizability, Alpha (dipole orientation).
 (esu units = cm**3 , SI units = C**2 m**2 J**-1)
 Alpha(0;0):
               (au)            (10**-24 esu)      (10**-40 SI)
   iso        0.787335D+02      0.116671D+02      0.129814D+02
   aniso      0.120667D+03      0.178810D+02      0.198953D+02
   xx         0.245310D+02      0.363511D+01      0.404461D+01
   yx         0.763063D+01      0.113074D+01      0.125812D+01
   yy         0.623611D+02      0.924095D+01      0.102819D+02
   zx        -0.497403D+01     -0.737076D+00     -0.820107D+00
   zy        -0.260220D+02     -0.385606D+01     -0.429045D+01
   zz         0.149308D+03      0.221252D+02      0.246176D+02

 ----------------------------------------------------------------------
 1\1\GINC-DESKTOP-PRN5QE3\Freq\RB3LYP\6-31G(d,p)\C6H8\SHOHEI\09-Nov-202
 3\0\\#N Geom=AllCheck Guess=TCheck SCRF=Check GenChk RB3LYP/6-31G(d,p)
  Freq\\3poly\\0,1\C,-2.2845683538,1.2357787318,0.0183799849\C,-1.02402
 63913,1.6955575584,-0.0257025914\C,0.1574221466,0.8562925248,0.0147238
 304\C,1.4253780518,1.3225913139,-0.0298675501\C,2.6068182129,0.4833137
 392,0.0105554779\C,3.8673683177,0.9430680154,-0.0335334708\H,-3.137519
 165,1.9050904956,-0.0148871403\H,-2.4982197031,0.1724169133,0.08927011
 \H,-0.8519608494,2.7695236863,-0.0967961358\H,-0.007712311,-0.21924771
 19,0.0858412759\H,1.5905159609,2.3981307058,-0.1009831462\H,2.43473307
 81,-0.5906494581,0.0816518309\H,4.0810423526,2.0064250097,-0.104424802
 6\H,4.7203041532,0.2737370757,-0.0002697727\\Version=EM64L-G16RevB.01\
 State=1-A\HF=-233.4112644\RMSD=1.658e-09\RMSF=6.184e-05\ZeroPoint=0.11
 89396\Thermal=0.1256595\Dipole=-0.0000075,0.000002,0.\DipoleDeriv=-0.2
 319275,-0.0205989,0.0005146,0.0916822,0.1144844,-0.0278914,-0.0067123,
 -0.0266,-0.3007335,0.1893604,0.0069867,-0.0035226,-0.2343841,0.117959,
 -0.0099086,0.0120098,-0.0126847,-0.0772198,0.0228375,0.0157262,-0.0025
 048,0.0500616,0.1086409,-0.0144528,-0.0047122,-0.0140572,-0.1060167,0.
 0228264,0.0157257,-0.0025051,0.0500597,0.1086447,-0.0144513,-0.0047169
 ,-0.0140572,-0.1060173,0.1893656,0.0069866,-0.003524,-0.2343861,0.1179
 573,-0.0099093,0.012011,-0.012685,-0.0772195,-0.2319287,-0.0205961,0.0
 005128,0.0916876,0.1144867,-0.0278914,-0.0067124,-0.0266002,-0.3007347
 ,-0.0543786,0.0496496,-0.0010549,0.0742435,-0.0102217,0.0082843,-0.002
 6372,0.008567,0.1312479,0.0418422,0.0118898,0.0003121,-0.0306601,-0.10
 07289,0.0155577,0.0030505,0.0150685,0.1345339,0.014742,-0.049793,0.004
 2765,0.0300927,-0.1129578,0.0138723,-0.0008645,0.0147911,0.1070378,0.0
 175269,-0.0138579,0.0019795,0.0189658,-0.1171774,0.0145381,-0.0001332,
 0.0149154,0.111151,0.0175272,-0.0138577,0.0019797,0.0189657,-0.1171765
 ,0.0145376,-0.0001324,0.0149153,0.111152,0.0147415,-0.0497967,0.004277
 3,0.0300904,-0.1129578,0.0138727,-0.0008641,0.0147915,0.1070368,0.0418
 416,0.0118863,0.0003129,-0.0306632,-0.1007281,0.015558,0.0030512,0.015
 0685,0.1345343,-0.0543765,0.0496494,-0.001054,0.0742442,-0.0102249,0.0
 082841,-0.0026372,0.0085671,0.1312479\Polar=156.7950806,1.9470821,56.1
 976939,-1.6634615,-2.1556601,23.2075924\Quadrupole=1.562118,1.9943168,
 -3.5564348,0.0186472,-0.0603403,-0.3589696\PG=C01 [X(C6H8)]\NImag=0\\0
 .81925015,0.05262372,0.66270755,-0.01162824,-0.03666135,0.10493526,-0.
 47135446,-0.13326472,0.01342593,0.78488792,-0.14702383,-0.17018417,0.0
 0945334,0.09524507,0.66714387,0.01431143,0.00929513,-0.05032177,-0.013
 63121,-0.03550521,0.13489512,-0.05647765,0.01308739,-0.00012024,-0.180
 96474,0.08503028,-0.00410787,0.76911181,-0.00218795,0.01637201,-0.0006
 2216,0.08343642,-0.17810063,0.00649225,0.07851215,0.66532821,0.0008628
 1,-0.00079777,0.00635529,-0.00400526,0.00647390,-0.06268285,-0.0123987
 0,-0.03533304,0.13275553,0.01206071,0.00684553,-0.00055215,-0.05992672
 ,-0.00150949,0.00083953,-0.42317886,-0.13481108,0.01293606,0.76910853,
 0.00492587,-0.00406504,0.00035653,0.01685929,0.01517332,-0.00087257,-0
 .13481082,-0.17166880,0.00920377,0.07851315,0.66533121,-0.00042863,0.0
 0033445,0.00233843,-0.00034264,-0.00066132,0.00467393,0.01293611,0.009
 20373,-0.05348788,-0.01239935,-0.03533250,0.13275521,-0.00586996,-0.00
 068040,0.00011076,0.01040380,-0.00595495,0.00040647,-0.05992748,0.0168
 5960,-0.00034253,-0.18096261,0.08343588,-0.00400483,0.78489508,0.00009
 368,0.00218682,-0.00014473,-0.00595517,-0.00281076,0.00104877,-0.00150
 869,0.01517323,-0.00066134,0.08503037,-0.17810214,0.00647372,0.0952437
 0,0.66713699,0.00006097,-0.00013583,-0.00003725,0.00040643,0.00104882,
 0.01234968,0.00083954,-0.00087259,0.00467395,-0.00410740,0.00649204,-0
 .06268280,-0.01363475,-0.03550606,0.13489541,0.00210924,0.00138859,-0.
 00011435,-0.00586997,0.00009363,0.00006095,0.01206086,0.00492588,-0.00
 042863,-0.05647683,-0.00218717,0.00086303,-0.47136132,-0.14701862,0.01
 431384,0.81925249,0.00138856,-0.00042959,0.00000758,-0.00068028,0.0021
 8681,-0.00013582,0.00684523,-0.00406516,0.00033444,0.01308843,0.016371
 84,-0.00079787,-0.13325918,-0.17017885,0.00929561,0.05262190,0.6627064
 6,-0.00011436,0.00000758,-0.00006283,0.00011078,-0.00014472,-0.0000372
 5,-0.00055218,0.00035651,0.00233844,-0.00012006,-0.00062212,0.00635524
 ,0.01342836,0.00945388,-0.05032174,-0.01163245,-0.03666178,0.10493507,
 -0.23064929,0.13837824,-0.00661887,-0.01857030,0.02126439,-0.00110609,
 -0.00279266,-0.00420630,0.00044094,-0.00059964,0.00143978,-0.00008389,
 -0.00025579,-0.00040242,0.00001055,-0.00013908,0.00015424,-0.00000852,
 0.24483785,0.14292335,-0.17225190,0.00739707,-0.01173805,0.01043238,-0
 .00026288,-0.00197788,-0.00073769,0.00084339,-0.00018843,0.00078418,-0
 .00003781,-0.00021716,-0.00012499,-0.00009184,0.00000208,0.00006407,-0
 .00000522,-0.15088061,0.17282813,-0.00691138,0.00744931,-0.03217719,0.
 00101781,-0.00064231,0.00428017,0.00029754,0.00086900,0.01195467,0.000
 02089,-0.00005653,0.00016641,-0.00000138,-0.00008971,-0.00158513,0.000
 00127,-0.00000697,-0.00001628,0.00714364,-0.00799583,0.02206036,-0.068
 24138,-0.04761059,0.00346198,-0.00113103,-0.03116233,0.00207370,0.0017
 8339,-0.00190652,0.00001478,-0.00014662,0.00021966,-0.00001278,0.00004
 442,0.00007487,-0.00000102,0.00002847,-0.00000550,0.00000018,0.0070376
 5,0.02214984,-0.00148030,0.06550402,-0.05115561,-0.32734668,0.01949054
 ,-0.00096213,-0.00891766,0.00089411,0.00215788,0.00096665,-0.00057629,
 -0.00025377,0.00043062,-0.00002666,0.00004390,-0.00005521,0.00002717,-
 0.00006592,-0.00000847,0.00000214,-0.00568913,-0.01261888,0.00102351,0
 .05842089,0.34604385,0.00369012,0.01944980,-0.03492447,0.00013014,0.00
 124132,0.00472225,-0.00024679,-0.00052954,-0.00756551,0.00001769,-0.00
 003211,-0.00002713,0.00000098,0.00002682,0.00037315,0.00000406,0.00000
 144,0.00001282,0.00031130,0.00070342,0.00221983,-0.00425866,-0.0215187
 6,0.02354367,-0.00228330,-0.03212516,0.00215481,-0.06390925,-0.0391405
 9,0.00277478,0.00524251,0.02569467,-0.00167942,0.00173070,0.00135544,-
 0.00012401,-0.00012029,-0.00005476,0.00000242,-0.00003654,-0.00010119,
 0.00000655,0.00103514,0.00023140,-0.00010810,-0.00475252,-0.00174109,0
 .00029486,0.06710324,-0.00023879,-0.00853362,0.00089406,-0.04061019,-0
 .31928272,0.01833371,-0.00444210,-0.01737521,0.00136215,-0.00174608,0.
 00079053,-0.00012520,0.00038542,0.00059330,-0.00005652,0.00012364,-0.0
 0010898,0.00000343,-0.00010256,0.00121832,-0.00053231,-0.00143096,0.00
 097640,0.00067099,0.04450133,0.34168819,0.00010274,0.00126068,0.005233
 94,0.00286937,0.01831680,-0.04286647,0.00026003,0.00101564,0.00292867,
 0.00007561,-0.00016088,-0.00145757,-0.00002591,-0.00005145,-0.00021242
 ,-0.00000792,0.00000602,-0.00003384,-0.00008661,-0.00053615,-0.0070359
 2,0.00027490,0.00067457,0.01110053,-0.00332260,-0.02075008,0.02858165,
 0.00167121,0.00100861,-0.00010049,0.00538438,0.02563257,-0.00167827,-0
 .06427939,-0.03817683,0.00273924,-0.00156220,-0.03115504,0.00208139,0.
 00138188,-0.00209259,0.00004465,-0.00006811,0.00030125,-0.00001735,0.0
 0012746,-0.00037057,0.00001939,-0.00023854,-0.00095092,0.00006709,-0.0
 0372635,0.00269379,-0.00009098,0.06620294,-0.00122531,0.00114320,-0.00
 015111,-0.00468088,-0.01684887,0.00132427,-0.03974057,-0.31765444,0.01
 834326,-0.00096459,-0.01024365,0.00099722,0.00213859,0.00079524,-0.000
 49060,-0.00018348,0.00045484,-0.00002013,0.00013362,0.00040974,-0.0000
 4468,0.00097726,0.00055368,-0.00002922,0.00252715,-0.00078037,0.000242
 45,0.04325346,0.34111254,0.00004326,-0.00017679,-0.00141279,0.00027259
 ,0.00097568,0.00282606,0.00283989,0.01832530,-0.04094325,0.00013843,0.
 00134442,0.00499126,-0.00022765,-0.00044192,-0.00641454,0.00001384,-0.
 00002571,0.00011068,-0.00001306,-0.00003888,-0.00025797,-0.00005700,-0
 .00000705,0.00027533,-0.00008025,0.00024051,0.00342380,-0.00324955,-0.
 02079701,0.02706540,-0.00006812,0.00030123,-0.00001735,0.00138200,-0.0
 0209243,0.00004464,-0.00156211,-0.03115510,0.00208140,-0.06427980,-0.0
 3817779,0.00273927,0.00538475,0.02563231,-0.00167826,0.00167128,0.0010
 0845,-0.00010050,0.00000314,0.00008362,-0.00000350,0.00014681,0.000213
 78,-0.00001151,-0.00028053,0.00106502,-0.00006271,-0.00476269,-0.00150
 619,0.00026260,0.06620265,-0.00018348,0.00045480,-0.00002013,0.0021384
 6,0.00079528,-0.00049057,-0.00096451,-0.01024343,0.00099720,-0.0397416
 3,-0.31765537,0.01834291,-0.00468113,-0.01684869,0.00132427,-0.0012252
 4,0.00114320,-0.00015109,-0.00008250,-0.00000986,0.00001232,0.00022992
 ,-0.00003231,0.00002148,-0.00087649,0.00067122,-0.00001856,-0.00150615
 ,0.00042900,0.00061026,0.04325473,0.34111325,0.00001385,-0.00002570,0.
 00011067,-0.00022764,-0.00044193,-0.00641448,0.00013848,0.00134443,0.0
 0499125,0.00283990,0.01832490,-0.04094302,0.00027258,0.00097561,0.0028
 2600,0.00004326,-0.00017679,-0.00141277,0.00000719,0.00001041,0.000166
 11,-0.00001255,0.00002167,0.00034135,0.00006223,-0.00004089,0.00022818
 ,0.00026260,0.00061029,0.00960036,-0.00324962,-0.02079661,0.02706518,-
 0.00003654,-0.00010118,0.00000655,-0.00012027,-0.00005477,0.00000242,0
 .00173060,0.00135563,-0.00012402,0.00524256,0.02569444,-0.00167943,-0.
 06391056,-0.03914516,0.00277526,-0.00228398,-0.03212526,0.00215489,0.0
 0001748,-0.00000559,0.00000040,-0.00004739,-0.00001177,0.00000141,0.00
 002712,-0.00025335,0.00001691,-0.00028055,-0.00087648,0.00006224,-0.00
 372630,0.00252714,-0.00008023,0.06710526,0.00012365,-0.00010898,0.0000
 0343,0.00038542,0.00059333,-0.00005652,-0.00174619,0.00079052,-0.00012
 521,-0.00444231,-0.01737586,0.00136222,-0.04061450,-0.31928017,0.01833
 426,-0.00023894,-0.00853306,0.00089404,0.00001679,0.00001232,0.0000003
 5,0.00003803,0.00000719,-0.00000029,-0.00025336,0.00012343,0.00000009,
 0.00106503,0.00067127,-0.00004088,0.00269386,-0.00078044,0.00024053,0.
 04450593,0.34168563,-0.00000793,0.00000602,-0.00003384,-0.00002590,-0.
 00005146,-0.00021241,0.00007559,-0.00016088,-0.00145759,0.00026008,0.0
 0101555,0.00292873,0.00286981,0.01831737,-0.04286670,0.00010281,0.0012
 6085,0.00523392,-0.00000104,0.00000060,0.00002067,-0.00000179,0.000000
 28,0.00000946,0.00001691,0.00000009,0.00007932,-0.00006271,-0.00001856
 ,0.00022818,-0.00009095,0.00024243,0.00342380,-0.00332320,-0.02075069,
 0.02858187,0.00002847,-0.00000550,0.00000018,0.00004442,0.00007488,-0.
 00000102,-0.00014664,0.00021964,-0.00001278,0.00178347,-0.00190643,0.0
 0001472,-0.00113159,-0.03116251,0.00207378,-0.06824352,-0.04761626,0.0
 0346256,0.00000489,0.00000040,-0.00000118,0.00000783,0.00000502,-0.000
 00025,-0.00004739,0.00003803,-0.00000179,0.00014682,0.00022993,-0.0000
 1254,-0.00023853,0.00097726,-0.00005699,-0.00475257,-0.00143086,0.0002
 7499,0.06550632,-0.00006592,-0.00000847,0.00000214,0.00004390,-0.00005
 520,0.00002717,-0.00025376,0.00043059,-0.00002666,0.00215776,0.0009666
 8,-0.00057629,-0.00096227,-0.00891693,0.00089407,-0.05116118,-0.327344
 92,0.01949083,-0.00001112,-0.00000115,-0.00000595,0.00000502,0.0000019
 7,0.00000072,-0.00001176,0.00000719,0.00000028,0.00021378,-0.00003232,
 0.00002167,-0.00095092,0.00055364,-0.00000704,-0.00174096,0.00097648,0
 .00067457,0.05842700,0.34604166,0.00000406,0.00000144,0.00001282,0.000
 00097,0.00002682,0.00037314,0.00001768,-0.00003210,-0.00002714,-0.0002
 4683,-0.00052955,-0.00756547,0.00013021,0.00124150,0.00472222,0.003690
 69,0.01945003,-0.03492444,-0.00000044,-0.00000608,-0.00009523,-0.00000
 025,0.00000072,0.00001395,0.00000141,-0.00000029,0.00000946,-0.0000115
 1,0.00002148,0.00034135,0.00006710,-0.00002923,0.00027533,0.00029495,0
 .00067101,0.01110055,-0.00425934,-0.02151907,0.02354365,-0.00013908,0.
 00015424,-0.00000852,-0.00025580,-0.00040242,0.00001054,-0.00059964,0.
 00143979,-0.00008389,-0.00279270,-0.00420625,0.00044103,-0.01857034,0.
 02126499,-0.00110602,-0.23064298,0.13837961,-0.00661790,-0.00005683,-0
 .00001240,0.00000491,0.00000490,-0.00001112,-0.00000044,0.00001747,0.0
 0001679,-0.00000104,0.00000314,-0.00008251,0.00000719,0.00012745,0.000
 13363,-0.00001306,0.00103514,-0.00010256,-0.00008666,0.00703801,-0.005
 68956,0.00031129,0.24483127,0.00000208,0.00006407,-0.00000522,-0.00021
 715,-0.00012498,-0.00009185,-0.00018840,0.00078413,-0.00003781,-0.0019
 7786,-0.00073752,0.00084339,-0.01173749,0.01043215,-0.00026280,0.14292
 483,-0.17225820,0.00739667,-0.00001240,-0.00000468,0.00001980,0.000000
 40,-0.00000115,-0.00000608,-0.00000559,0.00001232,0.00000060,0.0000836
 1,-0.00000986,0.00001041,-0.00037056,0.00040972,-0.00003888,0.00023137
 ,0.00121833,-0.00053616,0.02214940,-0.01261922,0.00070333,-0.15088224,
 0.17283488,0.00000127,-0.00000697,-0.00001628,-0.00000138,-0.00008971,
 -0.00158513,0.00002091,-0.00005654,0.00016643,0.00029761,0.00086904,0.
 01195465,0.00101789,-0.00064247,0.00428016,-0.00691041,0.00744896,-0.0
 3217701,0.00000491,0.00001980,0.00029949,-0.00000118,-0.00000595,-0.00
 009523,0.00000040,0.00000035,0.00002067,-0.00000350,0.00001232,0.00016
 612,0.00001938,-0.00004468,-0.00025797,-0.00010814,-0.00053232,-0.0070
 3596,-0.00148031,0.00102358,0.00221981,0.00714255,-0.00799541,0.022060
 26\\-0.00007705,0.00001502,-0.00000013,-0.00010149,-0.00005744,0.00000
 479,0.00017764,0.00014578,-0.00001145,-0.00017752,-0.00014550,0.000011
 38,0.00010221,0.00005789,-0.00000497,0.00007689,-0.00001524,0.00000005
 ,0.00001740,-0.00000432,0.00000006,0.00005110,-0.00000291,-0.00000037,
 0.00004244,0.00001436,-0.00000136,-0.00004622,-0.00002160,0.00000200,0
 .00004603,0.00002144,-0.00000183,-0.00004280,-0.00001447,0.00000147,-0
 .00005106,0.00000279,0.00000044,-0.00001756,0.00000419,-0.00000008\\\@


 NO HUMAN INVESTIGATION CAN BECOME REAL SCIENCE
 WITHOUT GOING THROUGH MATHEMATICAL PEOPLE.
 -- LEONARDO DA VINCI, IN "PENSIERI" CA. 1492
 Job cpu time:       0 days  0 hours  6 minutes 48.3 seconds.
 Elapsed time:       0 days  0 hours  1 minutes 42.2 seconds.
 File lengths (MBytes):  RWF=     30 Int=      0 D2E=      0 Chk=     30 Scr=      1
 Normal termination of Gaussian 16 at Thu Nov  9 19:23:52 2023.
