 Entering Gaussian System, Link 0=g16
 Input=./com/4.com
 Output=./log/4.log
 Initial command:
 /home/shohei/gaussian/g16/l1.exe "/home/shohei/gaussian/scratch/Gau-13210.inp" -scrdir="/home/shohei/gaussian/scratch/"
 Entering Link 1 = /home/shohei/gaussian/g16/l1.exe PID=     13212.
  
 Copyright (c) 1988-2017, Gaussian, Inc.  All Rights Reserved.
  
 This is part of the Gaussian(R) 16 program.  It is based on
 the Gaussian(R) 09 system (copyright 2009, Gaussian, Inc.),
 the Gaussian(R) 03 system (copyright 2003, Gaussian, Inc.),
 the Gaussian(R) 98 system (copyright 1998, Gaussian, Inc.),
 the Gaussian(R) 94 system (copyright 1995, Gaussian, Inc.),
 the Gaussian 92(TM) system (copyright 1992, Gaussian, Inc.),
 the Gaussian 90(TM) system (copyright 1990, Gaussian, Inc.),
 the Gaussian 88(TM) system (copyright 1988, Gaussian, Inc.),
 the Gaussian 86(TM) system (copyright 1986, Carnegie Mellon
 University), and the Gaussian 82(TM) system (copyright 1983,
 Carnegie Mellon University). Gaussian is a federally registered
 trademark of Gaussian, Inc.
  
 This software contains proprietary and confidential information,
 including trade secrets, belonging to Gaussian, Inc.
  
 This software is provided under written license and may be
 used, copied, transmitted, or stored only in accord with that
 written license.
  
 The following legend is applicable only to US Government
 contracts under FAR:
  
                    RESTRICTED RIGHTS LEGEND
  
 Use, reproduction and disclosure by the US Government is
 subject to restrictions as set forth in subparagraphs (a)
 and (c) of the Commercial Computer Software - Restricted
 Rights clause in FAR 52.227-19.
  
 Gaussian, Inc.
 340 Quinnipiac St., Bldg. 40, Wallingford CT 06492
  
  
 ---------------------------------------------------------------
 Warning -- This program may not be used in any manner that
 competes with the business of Gaussian, Inc. or will provide
 assistance to any competitor of Gaussian, Inc.  The licensee
 of this program is prohibited from giving any competitor of
 Gaussian, Inc. access to this program.  By using this program,
 the user acknowledges that Gaussian, Inc. is engaged in the
 business of creating and licensing software in the field of
 computational chemistry and represents and warrants to the
 licensee that it is not a competitor of Gaussian, Inc. and that
 it will not use this program in any manner prohibited above.
 ---------------------------------------------------------------
  

 Cite this work as:
 Gaussian 16, Revision B.01,
 M. J. Frisch, G. W. Trucks, H. B. Schlegel, G. E. Scuseria, 
 M. A. Robb, J. R. Cheeseman, G. Scalmani, V. Barone, 
 G. A. Petersson, H. Nakatsuji, X. Li, M. Caricato, A. V. Marenich, 
 J. Bloino, B. G. Janesko, R. Gomperts, B. Mennucci, H. P. Hratchian, 
 J. V. Ortiz, A. F. Izmaylov, J. L. Sonnenberg, D. Williams-Young, 
 F. Ding, F. Lipparini, F. Egidi, J. Goings, B. Peng, A. Petrone, 
 T. Henderson, D. Ranasinghe, V. G. Zakrzewski, J. Gao, N. Rega, 
 G. Zheng, W. Liang, M. Hada, M. Ehara, K. Toyota, R. Fukuda, 
 J. Hasegawa, M. Ishida, T. Nakajima, Y. Honda, O. Kitao, H. Nakai, 
 T. Vreven, K. Throssell, J. A. Montgomery, Jr., J. E. Peralta, 
 F. Ogliaro, M. J. Bearpark, J. J. Heyd, E. N. Brothers, K. N. Kudin, 
 V. N. Staroverov, T. A. Keith, R. Kobayashi, J. Normand, 
 K. Raghavachari, A. P. Rendell, J. C. Burant, S. S. Iyengar, 
 J. Tomasi, M. Cossi, J. M. Millam, M. Klene, C. Adamo, R. Cammi, 
 J. W. Ochterski, R. L. Martin, K. Morokuma, O. Farkas, 
 J. B. Foresman, and D. J. Fox, Gaussian, Inc., Wallingford CT, 2016.
 
 ******************************************
 Gaussian 16:  EM64L-G16RevB.01 20-Dec-2017
                 9-Nov-2023 
 ******************************************
 %chk=checkpoint.chk
 %nprocshared=2
 Will use up to    2 processors via shared memory.
 ---------------------------
 # B3LYP/6-31G(d,p) OPT FREQ
 ---------------------------
 1/18=20,19=15,26=3,38=1/1,3;
 2/9=110,12=2,17=6,18=5,40=1/2;
 3/5=1,6=6,7=101,11=2,25=1,30=1,71=1,74=-5/1,2,3;
 4//1;
 5/5=2,38=5/2;
 6/7=2,8=2,9=2,10=2,28=1/1;
 7//1,2,3,16;
 1/18=20,19=15,26=3/3(2);
 2/9=110/2;
 99//99;
 2/9=110/2;
 3/5=1,6=6,7=101,11=2,25=1,30=1,71=1,74=-5/1,2,3;
 4/5=5,16=3,69=1/1;
 5/5=2,38=5/2;
 7//1,2,3,16;
 1/18=20,19=15,26=3/3(-5);
 2/9=110/2;
 6/7=2,8=2,9=2,10=2,19=2,28=1/1;
 99/9=1/99;
 -----
 4poly
 -----
 Symbolic Z-matrix:
 Charge =  0 Multiplicity = 1
 C                    -2.25179   1.21907   0.01682 
 C                    -1.01928   1.73011  -0.02794 
 C                     0.17132   0.85673   0.01692 
 C                     1.40644   1.37328  -0.02832 
 C                     2.5973    0.49934   0.01653 
 C                     3.83274   1.01504  -0.02878 
 C                     5.02231   0.14017   0.01609 
 C                     6.25558   0.64928  -0.02886 
 H                    -3.11346   1.87788  -0.01738 
 H                    -2.41365   0.14745   0.08744 
 H                    -0.89869   2.80784  -0.09857 
 H                     0.03788  -0.22045   0.08767 
 H                     1.53925   2.45054  -0.09909 
 H                     2.46407  -0.57785   0.08735 
 H                     3.96715   2.09209  -0.09963 
 H                     4.9002   -0.93738   0.08689 
 H                     6.41919   1.7206   -0.09967 
 H                     7.11614  -0.01101   0.00536 
 

 GradGradGradGradGradGradGradGradGradGradGradGradGradGradGradGradGradGrad
 Berny optimization.
 Initialization pass.
                           ----------------------------
                           !    Initial Parameters    !
                           ! (Angstroms and Degrees)  !
 --------------------------                            --------------------------
 ! Name  Definition              Value          Derivative Info.                !
 --------------------------------------------------------------------------------
 ! R1    R(1,2)                  1.335          estimate D2E/DX2                !
 ! R2    R(1,9)                  1.0852         estimate D2E/DX2                !
 ! R3    R(1,10)                 1.0861         estimate D2E/DX2                !
 ! R4    R(2,3)                  1.4773         estimate D2E/DX2                !
 ! R5    R(2,11)                 1.0867         estimate D2E/DX2                !
 ! R6    R(3,4)                  1.3395         estimate D2E/DX2                !
 ! R7    R(3,12)                 1.0877         estimate D2E/DX2                !
 ! R8    R(4,5)                  1.4778         estimate D2E/DX2                !
 ! R9    R(4,13)                 1.0877         estimate D2E/DX2                !
 ! R10   R(5,6)                  1.3395         estimate D2E/DX2                !
 ! R11   R(5,14)                 1.0877         estimate D2E/DX2                !
 ! R12   R(6,7)                  1.4773         estimate D2E/DX2                !
 ! R13   R(6,15)                 1.0877         estimate D2E/DX2                !
 ! R14   R(7,8)                  1.335          estimate D2E/DX2                !
 ! R15   R(7,16)                 1.0868         estimate D2E/DX2                !
 ! R16   R(8,17)                 1.0861         estimate D2E/DX2                !
 ! R17   R(8,18)                 1.0852         estimate D2E/DX2                !
 ! A1    A(2,1,9)              119.9737         estimate D2E/DX2                !
 ! A2    A(2,1,10)             121.1633         estimate D2E/DX2                !
 ! A3    A(9,1,10)             118.863          estimate D2E/DX2                !
 ! A4    A(1,2,3)              121.1132         estimate D2E/DX2                !
 ! A5    A(1,2,11)             118.9636         estimate D2E/DX2                !
 ! A6    A(3,2,11)             119.9231         estimate D2E/DX2                !
 ! A7    A(2,3,4)              120.9378         estimate D2E/DX2                !
 ! A8    A(2,3,12)             119.2476         estimate D2E/DX2                !
 ! A9    A(4,3,12)             119.8145         estimate D2E/DX2                !
 ! A10   A(3,4,5)              120.9261         estimate D2E/DX2                !
 ! A11   A(3,4,13)             119.7813         estimate D2E/DX2                !
 ! A12   A(5,4,13)             119.2927         estimate D2E/DX2                !
 ! A13   A(4,5,6)              120.9647         estimate D2E/DX2                !
 ! A14   A(4,5,14)             119.2707         estimate D2E/DX2                !
 ! A15   A(6,5,14)             119.7645         estimate D2E/DX2                !
 ! A16   A(5,6,7)              120.9064         estimate D2E/DX2                !
 ! A17   A(5,6,15)             119.8274         estimate D2E/DX2                !
 ! A18   A(7,6,15)             119.2662         estimate D2E/DX2                !
 ! A19   A(6,7,8)              121.1318         estimate D2E/DX2                !
 ! A20   A(6,7,16)             119.913          estimate D2E/DX2                !
 ! A21   A(8,7,16)             118.9552         estimate D2E/DX2                !
 ! A22   A(7,8,17)             121.1679         estimate D2E/DX2                !
 ! A23   A(7,8,18)             119.9646         estimate D2E/DX2                !
 ! A24   A(17,8,18)            118.8676         estimate D2E/DX2                !
 ! D1    D(9,1,2,3)           -179.9993         estimate D2E/DX2                !
 ! D2    D(9,1,2,11)            -0.0002         estimate D2E/DX2                !
 ! D3    D(10,1,2,3)             0.0001         estimate D2E/DX2                !
 ! D4    D(10,1,2,11)          179.9992         estimate D2E/DX2                !
 ! D5    D(1,2,3,4)            179.9956         estimate D2E/DX2                !
 ! D6    D(1,2,3,12)            -0.0028         estimate D2E/DX2                !
 ! D7    D(11,2,3,4)            -0.0035         estimate D2E/DX2                !
 ! D8    D(11,2,3,12)          179.998          estimate D2E/DX2                !
 ! D9    D(2,3,4,5)           -179.998          estimate D2E/DX2                !
 ! D10   D(2,3,4,13)             0.0002         estimate D2E/DX2                !
 ! D11   D(12,3,4,5)             0.0004         estimate D2E/DX2                !
 ! D12   D(12,3,4,13)          179.9986         estimate D2E/DX2                !
 ! D13   D(3,4,5,6)            179.9933         estimate D2E/DX2                !
 ! D14   D(3,4,5,14)            -0.0049         estimate D2E/DX2                !
 ! D15   D(13,4,5,6)            -0.0049         estimate D2E/DX2                !
 ! D16   D(13,4,5,14)          179.997          estimate D2E/DX2                !
 ! D17   D(4,5,6,7)           -179.998          estimate D2E/DX2                !
 ! D18   D(4,5,6,15)             0.0004         estimate D2E/DX2                !
 ! D19   D(14,5,6,7)             0.0002         estimate D2E/DX2                !
 ! D20   D(14,5,6,15)          179.9986         estimate D2E/DX2                !
 ! D21   D(5,6,7,8)            179.9956         estimate D2E/DX2                !
 ! D22   D(5,6,7,16)            -0.0036         estimate D2E/DX2                !
 ! D23   D(15,6,7,8)            -0.0028         estimate D2E/DX2                !
 ! D24   D(15,6,7,16)          179.998          estimate D2E/DX2                !
 ! D25   D(6,7,8,17)             0.0001         estimate D2E/DX2                !
 ! D26   D(6,7,8,18)          -179.9993         estimate D2E/DX2                !
 ! D27   D(16,7,8,17)          179.9992         estimate D2E/DX2                !
 ! D28   D(16,7,8,18)           -0.0002         estimate D2E/DX2                !
 --------------------------------------------------------------------------------
 Trust Radius=3.00D-01 FncErr=1.00D-07 GrdErr=1.00D-06 EigMax=2.50D+02 EigMin=1.00D-04
 Number of steps in this run=     79 maximum allowed number of steps=    108.
 GradGradGradGradGradGradGradGradGradGradGradGradGradGradGradGradGradGrad

                          Input orientation:                          
 ---------------------------------------------------------------------
 Center     Atomic      Atomic             Coordinates (Angstroms)
 Number     Number       Type             X           Y           Z
 ---------------------------------------------------------------------
      1          6           0       -2.251790    1.219072    0.016820
      2          6           0       -1.019285    1.730114   -0.027945
      3          6           0        0.171324    0.856729    0.016916
      4          6           0        1.406440    1.373282   -0.028317
      5          6           0        2.597296    0.499337    0.016533
      6          6           0        3.832743    1.015041   -0.028783
      7          6           0        5.022315    0.140173    0.016094
      8          6           0        6.255582    0.649280   -0.028864
      9          1           0       -3.113461    1.877883   -0.017380
     10          1           0       -2.413652    0.147449    0.087438
     11          1           0       -0.898687    2.807835   -0.098573
     12          1           0        0.037883   -0.220447    0.087665
     13          1           0        1.539254    2.450536   -0.099088
     14          1           0        2.464070   -0.577853    0.087355
     15          1           0        3.967155    2.092094   -0.099630
     16          1           0        4.900205   -0.937375    0.086885
     17          1           0        6.419186    1.720601   -0.099672
     18          1           0        7.116139   -0.011012    0.005360
 ---------------------------------------------------------------------
                    Distance matrix (angstroms):
                    1          2          3          4          5
     1  C    0.000000
     2  C    1.335004   0.000000
     3  C    2.450055   1.477283   0.000000
     4  C    3.661757   2.451830   1.339546   0.000000
     5  C    4.902208   3.820530   2.452156   1.477812   0.000000
     6  C    6.088123   4.904437   3.665125   2.452607   1.339528
     7  C    7.353680   6.247462   4.903627   3.820612   2.451472
     8  C    8.526554   7.354719   6.087966   4.902893   3.661640
     9  H    1.085210   2.099410   3.440021   4.547994   5.874886
    10  H    1.086076   2.112440   2.681446   4.013623   5.023788
    11  H    2.090065   1.086745   2.228245   2.715970   4.190979
    12  H    2.705519   2.221634   1.087713   2.103894   2.659650
    13  H    3.987725   2.658983   2.103547   1.087715   2.222611
    14  H    5.047103   4.180164   2.705489   2.222361   1.087705
    15  H    6.281002   5.000075   3.993499   2.660646   2.104016
    16  H    7.470354   6.493770   5.058262   4.190322   2.715231
    17  H    8.686249   7.438823   6.308379   5.025271   4.013956
    18  H    9.448350   8.319720   6.998826   5.875207   4.547584
                    6          7          8          9         10
     6  C    0.000000
     7  C    1.477325   0.000000
     8  C    2.450292   1.334976   0.000000
     9  H    6.999598   8.319351   9.449263   0.000000
    10  H    6.307430   7.436312   8.684526   1.869525   0.000000
    11  H    5.060179   6.495216   7.473138   2.403462   3.067144
    12  H    3.992612   4.997972   6.279314   3.787479   2.478986
    13  H    2.706599   4.181238   5.049080   4.688535   4.578697
    14  H    2.103346   2.658055   3.986844   6.095118   4.931352
    15  H    1.087717   2.221880   2.706219   7.084333   6.673180
    16  H    2.228179   1.086753   2.089957   8.494433   7.393872
    17  H    2.681889   2.112441   1.086052   9.534300   8.973787
    18  H    3.440151   2.099303   1.085225  10.402555   9.531462
                   11         12         13         14         15
    11  H    0.000000
    12  H    3.175270   0.000000
    13  H    2.463984   3.069713   0.000000
    14  H    4.775520   2.452370   3.171937   0.000000
    15  H    4.918201   4.563123   2.454217   3.069665   0.000000
    16  H    6.905660   4.914891   4.775826   2.462521   3.175382
    17  H    7.398199   6.672615   4.934222   4.578298   2.480013
    18  H    8.496713   7.081831   6.096866   4.687193   3.788163
                   16         17         18
    16  H    0.000000
    17  H    3.067075   0.000000
    18  H    2.403156   1.869561   0.000000
 Stoichiometry    C8H10
 Framework group  C1[X(C8H10)]
 Deg. of freedom    48
 Full point group                 C1      NOp   1
 Largest Abelian subgroup         C1      NOp   1
 Largest concise Abelian subgroup C1      NOp   1
                         Standard orientation:                         
 ---------------------------------------------------------------------
 Center     Atomic      Atomic             Coordinates (Angstroms)
 Number     Number       Type             X           Y           Z
 ---------------------------------------------------------------------
      1          6           0        4.257498   -0.219060    0.000147
      2          6           0        3.093582    0.434803   -0.000007
      3          6           0        1.808589   -0.294002   -0.000053
      4          6           0        0.642727    0.365658   -0.000120
      5          6           0       -0.642577   -0.363671   -0.000120
      6          6           0       -1.808867    0.295192   -0.000052
      7          6           0       -3.093005   -0.435204   -0.000008
      8          6           0       -4.257907    0.216842    0.000147
      9          1           0        5.190618    0.334986    0.000189
     10          1           0        4.292313   -1.304578    0.000243
     11          1           0        3.100462    1.521526   -0.000087
     12          1           0        1.814527   -1.381699   -0.000005
     13          1           0        0.637421    1.453360   -0.000145
     14          1           0       -0.636854   -1.451361   -0.000145
     15          1           0       -1.815784    1.382887   -0.000004
     16          1           0       -3.098363   -1.521944   -0.000088
     17          1           0       -4.294487    1.302278    0.000244
     18          1           0       -5.190093   -0.338803    0.000189
 ---------------------------------------------------------------------
 Rotational constants (GHZ):          18.4596148           0.5799456           0.5622804
 Standard basis: 6-31G(d,p) (6D, 7F)
 There are   170 symmetry adapted cartesian basis functions of A   symmetry.
 There are   170 symmetry adapted basis functions of A   symmetry.
   170 basis functions,   294 primitive gaussians,   170 cartesian basis functions
    29 alpha electrons       29 beta electrons
       nuclear repulsion energy       298.1735309747 Hartrees.
 NAtoms=   18 NActive=   18 NUniq=   18 SFac= 1.00D+00 NAtFMM=   60 NAOKFM=F Big=F
 Integral buffers will be    131072 words long.
 Raffenetti 2 integral format.
 Two-electron integral symmetry is turned on.
 One-electron integrals computed using PRISM.
 NBasis=   170 RedAO= T EigKep=  1.82D-03  NBF=   170
 NBsUse=   170 1.00D-06 EigRej= -1.00D+00 NBFU=   170
 ExpMin= 1.61D-01 ExpMax= 3.05D+03 ExpMxC= 4.57D+02 IAcc=3 IRadAn=         5 AccDes= 0.00D+00
 Harris functional with IExCor=  402 and IRadAn=       5 diagonalized for initial guess.
 HarFok:  IExCor=  402 AccDes= 0.00D+00 IRadAn=         5 IDoV= 1 UseB2=F ITyADJ=14
 ICtDFT=  3500011 ScaDFX=  1.000000  1.000000  1.000000  1.000000
 FoFCou: FMM=F IPFlag=           0 FMFlag=      100000 FMFlg1=           0
         NFxFlg=           0 DoJE=T BraDBF=F KetDBF=T FulRan=T
         wScrn=  0.000000 ICntrl=       500 IOpCl=  0 I1Cent=   200000004 NGrid=           0
         NMat0=    1 NMatS0=      1 NMatT0=    0 NMatD0=    1 NMtDS0=    0 NMtDT0=    0
 Petite list used in FoFCou.
 Requested convergence on RMS density matrix=1.00D-08 within 128 cycles.
 Requested convergence on MAX density matrix=1.00D-06.
 Requested convergence on             energy=1.00D-06.
 No special actions if energy rises.
 Integral accuracy reduced to 1.0D-05 until final iterations.
 Initial convergence to 1.0D-05 achieved.  Increase integral accuracy.
 SCF Done:  E(RB3LYP) =  -310.815370611     A.U. after   13 cycles
            NFock= 13  Conv=0.27D-08     -V/T= 2.0100

 **********************************************************************

            Population analysis using the SCF Density.

 **********************************************************************

 Orbital symmetries:
       Occupied  (A) (A) (A) (A) (A) (A) (A) (A) (A) (A) (A) (A)
                 (A) (A) (A) (A) (A) (A) (A) (A) (A) (A) (A) (A)
                 (A) (A) (A) (A) (A)
       Virtual   (A) (A) (A) (A) (A) (A) (A) (A) (A) (A) (A) (A)
                 (A) (A) (A) (A) (A) (A) (A) (A) (A) (A) (A) (A)
                 (A) (A) (A) (A) (A) (A) (A) (A) (A) (A) (A) (A)
                 (A) (A) (A) (A) (A) (A) (A) (A) (A) (A) (A) (A)
                 (A) (A) (A) (A) (A) (A) (A) (A) (A) (A) (A) (A)
                 (A) (A) (A) (A) (A) (A) (A) (A) (A) (A) (A) (A)
                 (A) (A) (A) (A) (A) (A) (A) (A) (A) (A) (A) (A)
                 (A) (A) (A) (A) (A) (A) (A) (A) (A) (A) (A) (A)
                 (A) (A) (A) (A) (A) (A) (A) (A) (A) (A) (A) (A)
                 (A) (A) (A) (A) (A) (A) (A) (A) (A) (A) (A) (A)
                 (A) (A) (A) (A) (A) (A) (A) (A) (A) (A) (A) (A)
                 (A) (A) (A) (A) (A) (A) (A) (A) (A)
 The electronic state is 1-A.
 Alpha  occ. eigenvalues --  -10.19190 -10.19188 -10.19149 -10.19122 -10.19014
 Alpha  occ. eigenvalues --  -10.19010 -10.17983 -10.17980  -0.82155  -0.79574
 Alpha  occ. eigenvalues --   -0.75642  -0.71079  -0.61581  -0.56539  -0.56034
 Alpha  occ. eigenvalues --   -0.54724  -0.48099  -0.46421  -0.44798  -0.41252
 Alpha  occ. eigenvalues --   -0.39646  -0.37955  -0.37377  -0.35746  -0.34313
 Alpha  occ. eigenvalues --   -0.33809  -0.31071  -0.26030  -0.19960
 Alpha virt. eigenvalues --   -0.04739   0.02091   0.07572   0.09287   0.09744
 Alpha virt. eigenvalues --    0.12302   0.12633   0.12692   0.14952   0.15312
 Alpha virt. eigenvalues --    0.16812   0.19784   0.19901   0.20014   0.29229
 Alpha virt. eigenvalues --    0.32137   0.33395   0.36268   0.36770   0.38813
 Alpha virt. eigenvalues --    0.41508   0.47356   0.50452   0.52142   0.54062
 Alpha virt. eigenvalues --    0.56715   0.57347   0.58993   0.59079   0.59972
 Alpha virt. eigenvalues --    0.60905   0.62656   0.64638   0.64642   0.65710
 Alpha virt. eigenvalues --    0.68701   0.70103   0.71761   0.72842   0.79643
 Alpha virt. eigenvalues --    0.82485   0.83507   0.84377   0.85153   0.86639
 Alpha virt. eigenvalues --    0.87741   0.87805   0.91499   0.92074   0.92970
 Alpha virt. eigenvalues --    0.96032   1.02581   1.04795   1.05610   1.07545
 Alpha virt. eigenvalues --    1.09836   1.13467   1.22919   1.23920   1.30501
 Alpha virt. eigenvalues --    1.30537   1.30871   1.31563   1.33299   1.36693
 Alpha virt. eigenvalues --    1.39164   1.40278   1.42109   1.45817   1.49679
 Alpha virt. eigenvalues --    1.50036   1.51796   1.76263   1.76809   1.76862
 Alpha virt. eigenvalues --    1.86064   1.86133   1.86265   1.93202   1.93970
 Alpha virt. eigenvalues --    1.95699   1.95814   1.97214   1.99838   2.02891
 Alpha virt. eigenvalues --    2.05625   2.06301   2.13691   2.13700   2.17071
 Alpha virt. eigenvalues --    2.18377   2.20635   2.22835   2.26520   2.29219
 Alpha virt. eigenvalues --    2.33095   2.41423   2.41940   2.45206   2.48509
 Alpha virt. eigenvalues --    2.48694   2.48834   2.49454   2.52676   2.53793
 Alpha virt. eigenvalues --    2.58930   2.59730   2.61175   2.62450   2.63630
 Alpha virt. eigenvalues --    2.67293   2.68698   2.70837   2.71415   2.73335
 Alpha virt. eigenvalues --    2.75139   2.85843   2.86488   2.88424   2.94107
 Alpha virt. eigenvalues --    2.95472   2.99072   2.99748   3.27812   3.28151
 Alpha virt. eigenvalues --    3.36304   3.38978   3.43134   3.49666   3.59438
 Alpha virt. eigenvalues --    3.61964   3.70680   3.71049   4.13650   4.14344
 Alpha virt. eigenvalues --    4.16583   4.23276   4.30687   4.44835   4.60116
 Alpha virt. eigenvalues --    4.71954
          Condensed to atoms (all electrons):
               1          2          3          4          5          6
     1  C    4.964542   0.619135  -0.031336   0.002693  -0.000277   0.000005
     2  C    0.619135   4.740665   0.419757  -0.019845   0.004021  -0.000268
     3  C   -0.031336   0.419757   4.860874   0.577591  -0.017480   0.002461
     4  C    0.002693  -0.019845   0.577591   4.874761   0.388528  -0.017554
     5  C   -0.000277   0.004021  -0.017480   0.388528   4.874618   0.577593
     6  C    0.000005  -0.000268   0.002461  -0.017554   0.577593   4.861000
     7  C   -0.000000   0.000002  -0.000267   0.004023  -0.019779   0.419759
     8  C   -0.000000  -0.000000   0.000005  -0.000278   0.002685  -0.031367
     9  H    0.369538  -0.020444   0.004036  -0.000224   0.000003  -0.000000
    10  H    0.382791  -0.035952  -0.012721   0.000561  -0.000000  -0.000000
    11  H   -0.050918   0.382055  -0.047454  -0.005743   0.000267  -0.000004
    12  H   -0.005159  -0.046680   0.379641  -0.051207  -0.009484   0.000541
    13  H    0.000486  -0.009037  -0.053477   0.381644  -0.048100  -0.005191
    14  H   -0.000003   0.000240  -0.005199  -0.048135   0.381667  -0.053505
    15  H    0.000000  -0.000003   0.000539  -0.009470  -0.051183   0.379621
    16  H    0.000000  -0.000000  -0.000005   0.000268  -0.005746  -0.047471
    17  H    0.000000   0.000000  -0.000000  -0.000000   0.000561  -0.012715
    18  H   -0.000000   0.000000  -0.000000   0.000003  -0.000224   0.004039
               7          8          9         10         11         12
     1  C   -0.000000  -0.000000   0.369538   0.382791  -0.050918  -0.005159
     2  C    0.000002  -0.000000  -0.020444  -0.035952   0.382055  -0.046680
     3  C   -0.000267   0.000005   0.004036  -0.012721  -0.047454   0.379641
     4  C    0.004023  -0.000278  -0.000224   0.000561  -0.005743  -0.051207
     5  C   -0.019779   0.002685   0.000003  -0.000000   0.000267  -0.009484
     6  C    0.419759  -0.031367  -0.000000  -0.000000  -0.000004   0.000541
     7  C    4.740578   0.619145   0.000000   0.000000  -0.000000  -0.000004
     8  C    0.619145   4.964604  -0.000000   0.000000   0.000000   0.000000
     9  H    0.000000  -0.000000   0.601701  -0.042342  -0.008085   0.000026
    10  H    0.000000   0.000000  -0.042342   0.601227   0.005971   0.004587
    11  H   -0.000000   0.000000  -0.008085   0.005971   0.631191   0.004335
    12  H   -0.000004   0.000000   0.000026   0.004587   0.004335   0.631172
    13  H    0.000239  -0.000003  -0.000008   0.000014   0.004176   0.006044
    14  H   -0.009054   0.000488   0.000000   0.000001   0.000005   0.004064
    15  H   -0.046657  -0.005149  -0.000000  -0.000000   0.000001   0.000013
    16  H    0.382062  -0.050923  -0.000000  -0.000000  -0.000000   0.000001
    17  H   -0.035944   0.382789  -0.000000   0.000000  -0.000000  -0.000000
    18  H   -0.020434   0.369533   0.000000  -0.000000  -0.000000  -0.000000
              13         14         15         16         17         18
     1  C    0.000486  -0.000003   0.000000   0.000000   0.000000  -0.000000
     2  C   -0.009037   0.000240  -0.000003  -0.000000   0.000000   0.000000
     3  C   -0.053477  -0.005199   0.000539  -0.000005  -0.000000  -0.000000
     4  C    0.381644  -0.048135  -0.009470   0.000268  -0.000000   0.000003
     5  C   -0.048100   0.381667  -0.051183  -0.005746   0.000561  -0.000224
     6  C   -0.005191  -0.053505   0.379621  -0.047471  -0.012715   0.004039
     7  C    0.000239  -0.009054  -0.046657   0.382062  -0.035944  -0.020434
     8  C   -0.000003   0.000488  -0.005149  -0.050923   0.382789   0.369533
     9  H   -0.000008   0.000000  -0.000000  -0.000000  -0.000000   0.000000
    10  H    0.000014   0.000001  -0.000000  -0.000000   0.000000  -0.000000
    11  H    0.004176   0.000005   0.000001  -0.000000  -0.000000  -0.000000
    12  H    0.006044   0.004064   0.000013   0.000001  -0.000000  -0.000000
    13  H    0.633059   0.004263   0.004055   0.000005   0.000001   0.000000
    14  H    0.004263   0.633128   0.006045   0.004184   0.000014  -0.000008
    15  H    0.004055   0.006045   0.631132   0.004333   0.004579   0.000025
    16  H    0.000005   0.004184   0.004333   0.631231   0.005973  -0.008095
    17  H    0.000001   0.000014   0.004579   0.005973   0.601235  -0.042342
    18  H    0.000000  -0.000008   0.000025  -0.008095  -0.042342   0.601721
 Mulliken charges:
               1
     1  C   -0.251497
     2  C   -0.033647
     3  C   -0.076965
     4  C   -0.077616
     5  C   -0.077671
     6  C   -0.076943
     7  C   -0.033670
     8  C   -0.251530
     9  H    0.095799
    10  H    0.095862
    11  H    0.084202
    12  H    0.082110
    13  H    0.081830
    14  H    0.081805
    15  H    0.082118
    16  H    0.084182
    17  H    0.095848
    18  H    0.095783
 Sum of Mulliken charges =  -0.00000
 Mulliken charges with hydrogens summed into heavy atoms:
               1
     1  C   -0.059837
     2  C    0.050555
     3  C    0.005145
     4  C    0.004214
     5  C    0.004135
     6  C    0.005175
     7  C    0.050512
     8  C   -0.059899
 Electronic spatial extent (au):  <R**2>=           1947.7925
 Charge=             -0.0000 electrons
 Dipole moment (field-independent basis, Debye):
    X=              0.0017    Y=              0.0003    Z=              0.0001  Tot=              0.0017
 Quadrupole moment (field-independent basis, Debye-Ang):
   XX=            -46.1159   YY=            -43.0657   ZZ=            -53.6214
   XY=              0.4925   XZ=             -0.0000   YZ=              0.0000
 Traceless Quadrupole moment (field-independent basis, Debye-Ang):
   XX=              1.4851   YY=              4.5353   ZZ=             -6.0204
   XY=              0.4925   XZ=             -0.0000   YZ=              0.0000
 Octapole moment (field-independent basis, Debye-Ang**2):
  XXX=              0.0385  YYY=              0.0040  ZZZ=             -0.0001  XYY=             -0.0022
  XXY=              0.0049  XXZ=              0.0037  XZZ=              0.0014  YZZ=              0.0005
  YYZ=             -0.0000  XYZ=             -0.0018
 Hexadecapole moment (field-independent basis, Debye-Ang**3):
 XXXX=          -2364.0790 YYYY=           -134.1492 ZZZZ=            -55.5611 XXXY=             22.6040
 XXXZ=             -0.0000 YYYX=             -0.6463 YYYZ=              0.0000 ZZZX=             -0.0000
 ZZZY=              0.0000 XXYY=           -403.2051 XXZZ=           -476.4463 YYZZ=            -35.5903
 XXYZ=              0.0000 YYXZ=             -0.0000 ZZXY=              0.0931
 N-N= 2.981735309747D+02 E-N=-1.315027275285D+03  KE= 3.077276168435D+02
 Calling FoFJK, ICntrl=      2127 FMM=F ISym2X=0 I1Cent= 0 IOpClX= 0 NMat=1 NMatS=1 NMatT=0.
 ***** Axes restored to original set *****
 -------------------------------------------------------------------
 Center     Atomic                   Forces (Hartrees/Bohr)
 Number     Number              X              Y              Z
 -------------------------------------------------------------------
      1        6          -0.007898635    0.004410249   -0.000208434
      2        6           0.009376788   -0.022619815    0.001368124
      3        6          -0.019118476    0.024550831   -0.001398851
      4        6           0.021714102   -0.026051792    0.001470646
      5        6          -0.021720568    0.026057763   -0.001470724
      6        6           0.019098185   -0.024568932    0.001400192
      7        6          -0.009362780    0.022633498   -0.001370207
      8        6           0.007907678   -0.004425862    0.000208514
      9        1          -0.002850685   -0.003426498    0.000248264
     10        1          -0.002379572    0.000557753   -0.000012707
     11        1           0.005366934    0.000013167   -0.000052308
     12        1          -0.003389469    0.000661902   -0.000009630
     13        1           0.003168882   -0.000561909    0.000005833
     14        1          -0.003171366    0.000551732   -0.000004580
     15        1           0.003393109   -0.000671844    0.000010698
     16        1          -0.005372008   -0.000001940    0.000052747
     17        1           0.002382363   -0.000546099    0.000012372
     18        1           0.002855518    0.003437796   -0.000249949
 -------------------------------------------------------------------
 Cartesian Forces:  Max     0.026057763 RMS     0.010334557

 GradGradGradGradGradGradGradGradGradGradGradGradGradGradGradGradGradGrad
 Berny optimization.
 FormGI is forming the generalized inverse of G from B-inverse, IUseBI=4.
 Internal  Forces:  Max     0.017680885 RMS     0.006777468
 Search for a local minimum.
 Step number   1 out of a maximum of   79
 All quantities printed in internal units (Hartrees-Bohrs-Radians)
 Mixed Optimization -- RFO/linear search
 Second derivative matrix not updated -- first step.
 ITU=  0
     Eigenvalues ---    0.01059   0.01066   0.01066   0.01978   0.01979
     Eigenvalues ---    0.01982   0.01983   0.01999   0.01999   0.02888
     Eigenvalues ---    0.02889   0.02949   0.02949   0.02949   0.02949
     Eigenvalues ---    0.16000   0.16000   0.16000   0.16000   0.16000
     Eigenvalues ---    0.16000   0.16000   0.16000   0.16000   0.16000
     Eigenvalues ---    0.22000   0.22000   0.22000   0.22000   0.22000
     Eigenvalues ---    0.22000   0.34821   0.34878   0.34883   0.35078
     Eigenvalues ---    0.35078   0.35078   0.35079   0.35191   0.35192
     Eigenvalues ---    0.35270   0.35273   0.35370   0.35372   0.57307
     Eigenvalues ---    0.57311   0.58339   0.58346
 RFO step:  Lambda=-1.08253089D-02 EMin= 1.05945390D-02
 Linear search not attempted -- first point.
 Iteration  1 RMS(Cart)=  0.04990067 RMS(Int)=  0.00044688
 Iteration  2 RMS(Cart)=  0.00105975 RMS(Int)=  0.00000012
 Iteration  3 RMS(Cart)=  0.00000009 RMS(Int)=  0.00000010
 Variable       Old X    -DE/DX   Delta X   Delta X   Delta X     New X
                                 (Linear)    (Quad)   (Total)
    R1        2.52279   0.01153   0.00000   0.01941   0.01941   2.54220
    R2        2.05075   0.00018   0.00000   0.00048   0.00048   2.05123
    R3        2.05239  -0.00020   0.00000  -0.00054  -0.00054   2.05185
    R4        2.79166  -0.01380   0.00000  -0.03836  -0.03836   2.75330
    R5        2.05365   0.00061   0.00000   0.00169   0.00169   2.05534
    R6        2.53138   0.01766   0.00000   0.03025   0.03025   2.56163
    R7        2.05548  -0.00024   0.00000  -0.00066  -0.00066   2.05482
    R8        2.79266  -0.01654   0.00000  -0.04608  -0.04608   2.74658
    R9        2.05548  -0.00017   0.00000  -0.00047  -0.00047   2.05501
   R10        2.53134   0.01768   0.00000   0.03028   0.03028   2.56162
   R11        2.05546  -0.00016   0.00000  -0.00044  -0.00044   2.05503
   R12        2.79174  -0.01381   0.00000  -0.03842  -0.03842   2.75332
   R13        2.05549  -0.00025   0.00000  -0.00068  -0.00068   2.05481
   R14        2.52274   0.01156   0.00000   0.01945   0.01945   2.54219
   R15        2.05367   0.00061   0.00000   0.00168   0.00168   2.05534
   R16        2.05234  -0.00018   0.00000  -0.00050  -0.00050   2.05184
   R17        2.05078   0.00016   0.00000   0.00045   0.00045   2.05123
    A1        2.09394   0.00443   0.00000   0.02594   0.02594   2.11988
    A2        2.11470   0.00028   0.00000   0.00166   0.00166   2.11636
    A3        2.07455  -0.00472   0.00000  -0.02761  -0.02761   2.04694
    A4        2.11382   0.01175   0.00000   0.05092   0.05092   2.16474
    A5        2.07631  -0.00040   0.00000   0.00659   0.00659   2.08290
    A6        2.09305  -0.01135   0.00000  -0.05751  -0.05751   2.03554
    A7        2.11076   0.01212   0.00000   0.05251   0.05251   2.16327
    A8        2.08126  -0.00960   0.00000  -0.04698  -0.04698   2.03428
    A9        2.09116  -0.00252   0.00000  -0.00553  -0.00553   2.08563
   A10        2.11056   0.01253   0.00000   0.05430   0.05430   2.16486
   A11        2.09058  -0.00296   0.00000  -0.00782  -0.00782   2.08276
   A12        2.08205  -0.00957   0.00000  -0.04649  -0.04649   2.03556
   A13        2.11123   0.01244   0.00000   0.05388   0.05388   2.16511
   A14        2.08167  -0.00952   0.00000  -0.04628  -0.04628   2.03539
   A15        2.09029  -0.00291   0.00000  -0.00760  -0.00760   2.08269
   A16        2.11022   0.01220   0.00000   0.05286   0.05286   2.16308
   A17        2.09138  -0.00255   0.00000  -0.00567  -0.00567   2.08571
   A18        2.08159  -0.00965   0.00000  -0.04719  -0.04719   2.03440
   A19        2.11415   0.01171   0.00000   0.05074   0.05074   2.16488
   A20        2.09288  -0.01134   0.00000  -0.05745  -0.05745   2.03542
   A21        2.07616  -0.00037   0.00000   0.00672   0.00672   2.08288
   A22        2.11478   0.00028   0.00000   0.00162   0.00162   2.11640
   A23        2.09378   0.00445   0.00000   0.02604   0.02604   2.11982
   A24        2.07463  -0.00473   0.00000  -0.02766  -0.02766   2.04697
    D1       -3.14158  -0.00000   0.00000  -0.00001  -0.00001  -3.14159
    D2       -0.00000   0.00000   0.00000   0.00000   0.00000   0.00000
    D3        0.00000   0.00000   0.00000   0.00000   0.00000   0.00001
    D4        3.14158   0.00000   0.00000   0.00001   0.00001  -3.14159
    D5        3.14152   0.00000   0.00000   0.00004   0.00004   3.14155
    D6       -0.00005   0.00000   0.00000   0.00001   0.00001  -0.00004
    D7       -0.00006   0.00000   0.00000   0.00002   0.00002  -0.00004
    D8        3.14156  -0.00000   0.00000   0.00000   0.00000   3.14156
    D9       -3.14156  -0.00000   0.00000  -0.00002  -0.00002  -3.14158
   D10        0.00000   0.00000   0.00000   0.00001   0.00001   0.00001
   D11        0.00001   0.00000   0.00000   0.00000   0.00000   0.00001
   D12        3.14157   0.00000   0.00000   0.00003   0.00003  -3.14159
   D13        3.14148   0.00000   0.00000   0.00006   0.00006   3.14153
   D14       -0.00009   0.00000   0.00000   0.00003   0.00003  -0.00005
   D15       -0.00009   0.00000   0.00000   0.00003   0.00003  -0.00005
   D16        3.14154  -0.00000   0.00000   0.00001   0.00001   3.14155
   D17       -3.14156  -0.00000   0.00000  -0.00002  -0.00002  -3.14158
   D18        0.00001   0.00000   0.00000   0.00000   0.00000   0.00001
   D19        0.00000   0.00000   0.00000   0.00001   0.00001   0.00001
   D20        3.14157   0.00000   0.00000   0.00003   0.00003  -3.14159
   D21        3.14152   0.00000   0.00000   0.00004   0.00004   3.14155
   D22       -0.00006   0.00000   0.00000   0.00002   0.00002  -0.00004
   D23       -0.00005   0.00000   0.00000   0.00001   0.00001  -0.00004
   D24        3.14156  -0.00000   0.00000   0.00000   0.00000   3.14156
   D25        0.00000   0.00000   0.00000   0.00000   0.00000   0.00001
   D26       -3.14158  -0.00000   0.00000  -0.00001  -0.00001  -3.14159
   D27        3.14158   0.00000   0.00000   0.00001   0.00001  -3.14159
   D28       -0.00000   0.00000   0.00000   0.00000   0.00000   0.00000
         Item               Value     Threshold  Converged?
 Maximum Force            0.017681     0.000450     NO 
 RMS     Force            0.006777     0.000300     NO 
 Maximum Displacement     0.168562     0.001800     NO 
 RMS     Displacement     0.049131     0.001200     NO 
 Predicted change in Energy=-5.643957D-03
 GradGradGradGradGradGradGradGradGradGradGradGradGradGradGradGradGradGrad

                          Input orientation:                          
 ---------------------------------------------------------------------
 Center     Atomic      Atomic             Coordinates (Angstroms)
 Number     Number       Type             X           Y           Z
 ---------------------------------------------------------------------
      1          6           0       -2.308547    1.222337    0.017220
      2          6           0       -1.052258    1.701554   -0.025796
      3          6           0        0.140886    0.866441    0.016545
      4          6           0        1.406059    1.351179   -0.026959
      5          6           0        2.597617    0.519991    0.015125
      6          6           0        3.862907    1.004410   -0.028429
      7          6           0        5.055690    0.168758    0.013912
      8          6           0        6.312254    0.647231   -0.029219
      9          1           0       -3.168619    1.883645   -0.017130
     10          1           0       -2.502852    0.156410    0.087831
     11          1           0       -0.893531    2.775218   -0.096561
     12          1           0       -0.019155   -0.206747    0.087323
     13          1           0        1.563028    2.424927   -0.097740
     14          1           0        2.440457   -0.553732    0.085952
     15          1           0        4.023299    2.077537   -0.099246
     16          1           0        4.896358   -0.904813    0.084779
     17          1           0        6.507225    1.713029   -0.099930
     18          1           0        7.171896   -0.014636    0.005140
 ---------------------------------------------------------------------
                    Distance matrix (angstroms):
                    1          2          3          4          5
     1  C    0.000000
     2  C    1.345274   0.000000
     3  C    2.475153   1.456983   0.000000
     4  C    3.717102   2.483161   1.355554   0.000000
     5  C    4.956181   3.836580   2.481039   1.453428   0.000000
     6  C    6.175469   4.964359   3.724849   2.481200   1.355551
     7  C    7.439221   6.297465   4.964077   3.836612   2.483040
     8  C    8.640087   7.439600   6.175429   4.956440   3.717080
     9  H    1.085464   2.124198   3.462465   4.605573   5.925375
    10  H    1.085791   2.122406   2.738353   4.089038   5.113928
    11  H    2.103962   1.087638   2.173992   2.705706   4.157719
    12  H    2.699724   2.172950   1.087362   2.114576   2.716773
    13  H    4.055678   2.714436   2.112919   1.087467   2.170689
    14  H    5.070717   4.159069   2.703652   2.170579   1.087473
    15  H    6.390399   5.089994   4.068574   2.717125   2.114616
    16  H    7.512655   6.495491   5.075087   4.157423   2.705389
    17  H    8.830194   7.559855   6.423437   5.114504   4.089207
    18  H    9.560808   8.401367   7.086009   5.925484   4.605427
                    6          7          8          9         10
     6  C    0.000000
     7  C    1.456996   0.000000
     8  C    2.475253   1.345269   0.000000
     9  H    7.086293   8.401253   9.561162   0.000000
    10  H    6.423045   7.558913   8.829535   1.854078   0.000000
    11  H    5.075835   6.496080   7.513734   2.444839   3.079297
    12  H    4.068256   5.089248   6.389804   3.781504   2.510106
    13  H    2.704092   4.159501   5.071493   4.763189   4.659612
    14  H    2.112878   2.714153   4.055415   6.116630   4.994056
    15  H    1.087356   2.173033   2.699999   7.195000   6.805614
    16  H    2.173929   1.087641   2.103948   8.534034   7.474925
    17  H    2.738552   2.122424   1.085789   9.677702   9.145479
    18  H    3.462512   2.124156   1.085465  10.513335   9.676613
                   11         12         13         14         15
    11  H    0.000000
    12  H    3.112951   0.000000
    13  H    2.481408   3.076241   0.000000
    14  H    4.714943   2.483966   3.110632   0.000000
    15  H    4.966083   4.646956   2.484676   3.076243   0.000000
    16  H    6.862822   4.964833   4.715036   2.480869   3.112958
    17  H    7.476592   6.805456   4.995186   4.659545   2.510528
    18  H    8.534913   7.194086   6.117307   4.762738   3.781765
                   16         17         18
    16  H    0.000000
    17  H    3.079303   0.000000
    18  H    2.444756   1.854091   0.000000
 Stoichiometry    C8H10
 Framework group  C1[X(C8H10)]
 Deg. of freedom    48
 Full point group                 C1      NOp   1
 Largest Abelian subgroup         C1      NOp   1
 Largest concise Abelian subgroup C1      NOp   1
                         Standard orientation:                         
 ---------------------------------------------------------------------
 Center     Atomic      Atomic             Coordinates (Angstroms)
 Number     Number       Type             X           Y           Z
 ---------------------------------------------------------------------
      1          6           0        4.315239   -0.202442    0.000075
      2          6           0        3.121084    0.417039   -0.000005
      3          6           0        1.841279   -0.279309   -0.000024
      4          6           0        0.638920    0.346678   -0.000059
      5          6           0       -0.638865   -0.345938   -0.000059
      6          6           0       -1.841376    0.279748   -0.000024
      7          6           0       -3.120883   -0.417173   -0.000005
      8          6           0       -4.315396    0.201608    0.000075
      9          1           0        5.244478    0.358582    0.000091
     10          1           0        4.387956   -1.285794    0.000126
     11          1           0        3.084591    1.504064   -0.000056
     12          1           0        1.879132   -1.366011   -0.000004
     13          1           0        0.604184    1.433590   -0.000081
     14          1           0       -0.603935   -1.432850   -0.000081
     15          1           0       -1.879585    1.366433   -0.000004
     16          1           0       -3.083778   -1.504181   -0.000056
     17          1           0       -4.388789    1.284914    0.000126
     18          1           0       -5.244270   -0.360020    0.000091
 ---------------------------------------------------------------------
 Rotational constants (GHZ):          19.4685252           0.5658366           0.5498555
 Standard basis: 6-31G(d,p) (6D, 7F)
 There are   170 symmetry adapted cartesian basis functions of A   symmetry.
 There are   170 symmetry adapted basis functions of A   symmetry.
   170 basis functions,   294 primitive gaussians,   170 cartesian basis functions
    29 alpha electrons       29 beta electrons
       nuclear repulsion energy       296.6907819054 Hartrees.
 NAtoms=   18 NActive=   18 NUniq=   18 SFac= 1.00D+00 NAtFMM=   60 NAOKFM=F Big=F
 Integral buffers will be    131072 words long.
 Raffenetti 2 integral format.
 Two-electron integral symmetry is turned on.
 One-electron integrals computed using PRISM.
 NBasis=   170 RedAO= T EigKep=  1.81D-03  NBF=   170
 NBsUse=   170 1.00D-06 EigRej= -1.00D+00 NBFU=   170
 Initial guess from the checkpoint file:  "checkpoint.chk"
 B after Tr=     0.000000    0.000000   -0.000000
         Rot=    0.999999    0.000000   -0.000000   -0.001262 Ang=   0.14 deg.
 ExpMin= 1.61D-01 ExpMax= 3.05D+03 ExpMxC= 4.57D+02 IAcc=3 IRadAn=         5 AccDes= 0.00D+00
 Harris functional with IExCor=  402 and IRadAn=       5 diagonalized for initial guess.
 HarFok:  IExCor=  402 AccDes= 0.00D+00 IRadAn=         5 IDoV= 1 UseB2=F ITyADJ=14
 ICtDFT=  3500011 ScaDFX=  1.000000  1.000000  1.000000  1.000000
 FoFCou: FMM=F IPFlag=           0 FMFlag=      100000 FMFlg1=           0
         NFxFlg=           0 DoJE=T BraDBF=F KetDBF=T FulRan=T
         wScrn=  0.000000 ICntrl=       500 IOpCl=  0 I1Cent=   200000004 NGrid=           0
         NMat0=    1 NMatS0=      1 NMatT0=    0 NMatD0=    1 NMtDS0=    0 NMtDT0=    0
 Petite list used in FoFCou.
 Requested convergence on RMS density matrix=1.00D-08 within 128 cycles.
 Requested convergence on MAX density matrix=1.00D-06.
 Requested convergence on             energy=1.00D-06.
 No special actions if energy rises.
 Integral accuracy reduced to 1.0D-05 until final iterations.
 Initial convergence to 1.0D-05 achieved.  Increase integral accuracy.
 SCF Done:  E(RB3LYP) =  -310.821270833     A.U. after   11 cycles
            NFock= 11  Conv=0.51D-08     -V/T= 2.0103
 Calling FoFJK, ICntrl=      2127 FMM=F ISym2X=0 I1Cent= 0 IOpClX= 0 NMat=1 NMatS=1 NMatT=0.
 ***** Axes restored to original set *****
 -------------------------------------------------------------------
 Center     Atomic                   Forces (Hartrees/Bohr)
 Number     Number              X              Y              Z
 -------------------------------------------------------------------
      1        6           0.002554905    0.002686520   -0.000197504
      2        6           0.001756203   -0.006461461    0.000399814
      3        6          -0.003364239    0.007520917   -0.000452225
      4        6           0.005146248   -0.008242166    0.000482196
      5        6          -0.005150346    0.008236972   -0.000481318
      6        6           0.003361905   -0.007526830    0.000453532
      7        6          -0.001759535    0.006462333   -0.000400010
      8        6          -0.002559180   -0.002683702    0.000198570
      9        1           0.000029504   -0.000847083    0.000054367
     10        1          -0.000707616   -0.000485110    0.000038050
     11        1           0.000427514    0.001244027   -0.000084668
     12        1           0.000375643   -0.001718294    0.000106877
     13        1          -0.000413794    0.001712733   -0.000106998
     14        1           0.000418607   -0.001711208    0.000105861
     15        1          -0.000372726    0.001719932   -0.000107720
     16        1          -0.000424134   -0.001243194    0.000084071
     17        1           0.000707394    0.000484907   -0.000038254
     18        1          -0.000026353    0.000850707   -0.000054641
 -------------------------------------------------------------------
 Cartesian Forces:  Max     0.008242166 RMS     0.002924761

 GradGradGradGradGradGradGradGradGradGradGradGradGradGradGradGradGradGrad
 Berny optimization.
 Using GEDIIS/GDIIS optimizer.
 FormGI is forming the generalized inverse of G from B-inverse, IUseBI=4.
 Internal  Forces:  Max     0.007390690 RMS     0.001526500
 Search for a local minimum.
 Step number   2 out of a maximum of   79
 All quantities printed in internal units (Hartrees-Bohrs-Radians)
 Mixed Optimization -- RFO/linear search
 Update second derivatives using D2CorX and points    1    2
 DE= -5.90D-03 DEPred=-5.64D-03 R= 1.05D+00
 TightC=F SS=  1.41D+00  RLast= 2.07D-01 DXNew= 5.0454D-01 6.2016D-01
 Trust test= 1.05D+00 RLast= 2.07D-01 DXMaxT set to 5.05D-01
 ITU=  1  0
 Use linear search instead of GDIIS.
     Eigenvalues ---    0.01059   0.01066   0.01066   0.01997   0.01997
     Eigenvalues ---    0.02002   0.02002   0.02031   0.02031   0.02888
     Eigenvalues ---    0.02889   0.02949   0.02949   0.02949   0.02949
     Eigenvalues ---    0.15650   0.16000   0.16000   0.16000   0.16000
     Eigenvalues ---    0.16000   0.16000   0.16000   0.16000   0.16569
     Eigenvalues ---    0.20897   0.22000   0.22000   0.22000   0.22000
     Eigenvalues ---    0.22038   0.32050   0.34849   0.34880   0.35078
     Eigenvalues ---    0.35078   0.35079   0.35162   0.35191   0.35249
     Eigenvalues ---    0.35272   0.35333   0.35371   0.35441   0.57309
     Eigenvalues ---    0.57795   0.58343   0.61440
 RFO step:  Lambda=-4.61329888D-04 EMin= 1.05945390D-02
 Quartic linear search produced a step of  0.10191.
 Iteration  1 RMS(Cart)=  0.00903156 RMS(Int)=  0.00001857
 Iteration  2 RMS(Cart)=  0.00004091 RMS(Int)=  0.00000001
 Iteration  3 RMS(Cart)=  0.00000000 RMS(Int)=  0.00000001
 Variable       Old X    -DE/DX   Delta X   Delta X   Delta X     New X
                                 (Linear)    (Quad)   (Total)
    R1        2.54220  -0.00224   0.00198  -0.00540  -0.00342   2.53878
    R2        2.05123  -0.00054   0.00005  -0.00171  -0.00166   2.04957
    R3        2.05185   0.00061  -0.00006   0.00192   0.00187   2.05371
    R4        2.75330  -0.00555  -0.00391  -0.01513  -0.01904   2.73426
    R5        2.05534   0.00130   0.00017   0.00395   0.00412   2.05946
    R6        2.56163  -0.00170   0.00308  -0.00509  -0.00201   2.55962
    R7        2.05482   0.00165  -0.00007   0.00521   0.00514   2.05996
    R8        2.74658  -0.00739  -0.00470  -0.02052  -0.02521   2.72137
    R9        2.05501   0.00164  -0.00005   0.00517   0.00512   2.06013
   R10        2.56162  -0.00170   0.00309  -0.00509  -0.00201   2.55961
   R11        2.05503   0.00164  -0.00004   0.00516   0.00511   2.06014
   R12        2.75332  -0.00555  -0.00392  -0.01515  -0.01907   2.73426
   R13        2.05481   0.00165  -0.00007   0.00522   0.00515   2.05995
   R14        2.54219  -0.00224   0.00198  -0.00540  -0.00342   2.53878
   R15        2.05534   0.00129   0.00017   0.00395   0.00412   2.05946
   R16        2.05184   0.00061  -0.00005   0.00192   0.00187   2.05371
   R17        2.05123  -0.00054   0.00005  -0.00171  -0.00167   2.04956
    A1        2.11988   0.00048   0.00264   0.00161   0.00425   2.12413
    A2        2.11636   0.00039   0.00017   0.00254   0.00271   2.11907
    A3        2.04694  -0.00086  -0.00281  -0.00415  -0.00696   2.03998
    A4        2.16474   0.00111   0.00519   0.00236   0.00755   2.17229
    A5        2.08290  -0.00031   0.00067  -0.00155  -0.00088   2.08202
    A6        2.03554  -0.00081  -0.00586  -0.00081  -0.00667   2.02887
    A7        2.16327   0.00069   0.00535   0.00012   0.00547   2.16874
    A8        2.03428   0.00030  -0.00479   0.00569   0.00090   2.03518
    A9        2.08563  -0.00099  -0.00056  -0.00581  -0.00637   2.07926
   A10        2.16486   0.00088   0.00553   0.00095   0.00648   2.17134
   A11        2.08276  -0.00111  -0.00080  -0.00636  -0.00716   2.07560
   A12        2.03556   0.00024  -0.00474   0.00541   0.00067   2.03624
   A13        2.16511   0.00084   0.00549   0.00081   0.00630   2.17141
   A14        2.03539   0.00026  -0.00472   0.00552   0.00080   2.03618
   A15        2.08269  -0.00110  -0.00077  -0.00633  -0.00710   2.07559
   A16        2.16308   0.00071   0.00539   0.00022   0.00561   2.16869
   A17        2.08571  -0.00100  -0.00058  -0.00585  -0.00643   2.07928
   A18        2.03440   0.00028  -0.00481   0.00562   0.00082   2.03522
   A19        2.16488   0.00110   0.00517   0.00228   0.00745   2.17234
   A20        2.03542  -0.00079  -0.00586  -0.00074  -0.00659   2.02883
   A21        2.08288  -0.00030   0.00068  -0.00154  -0.00086   2.08202
   A22        2.11640   0.00038   0.00017   0.00252   0.00268   2.11908
   A23        2.11982   0.00049   0.00265   0.00165   0.00430   2.12412
   A24        2.04697  -0.00087  -0.00282  -0.00416  -0.00698   2.03999
    D1       -3.14159  -0.00000  -0.00000  -0.00000  -0.00000  -3.14159
    D2        0.00000  -0.00000   0.00000  -0.00000   0.00000   0.00000
    D3        0.00001  -0.00000   0.00000  -0.00000  -0.00000   0.00000
    D4       -3.14159  -0.00000   0.00000  -0.00000  -0.00000  -3.14159
    D5        3.14155   0.00000   0.00000   0.00003   0.00003   3.14158
    D6       -0.00004   0.00000   0.00000   0.00003   0.00003  -0.00001
    D7       -0.00004   0.00000   0.00000   0.00003   0.00003  -0.00001
    D8        3.14156   0.00000   0.00000   0.00003   0.00003   3.14159
    D9       -3.14158  -0.00000  -0.00000  -0.00001  -0.00001  -3.14159
   D10        0.00001  -0.00000   0.00000  -0.00000  -0.00000   0.00001
   D11        0.00001  -0.00000   0.00000  -0.00000  -0.00000   0.00001
   D12       -3.14159   0.00000   0.00000  -0.00000   0.00000  -3.14159
   D13        3.14153   0.00000   0.00001   0.00005   0.00005   3.14158
   D14       -0.00005   0.00000   0.00000   0.00004   0.00005  -0.00001
   D15       -0.00005   0.00000   0.00000   0.00004   0.00005  -0.00001
   D16        3.14155   0.00000   0.00000   0.00004   0.00004   3.14159
   D17       -3.14158  -0.00000  -0.00000  -0.00001  -0.00001  -3.14159
   D18        0.00001  -0.00000   0.00000  -0.00000  -0.00000   0.00001
   D19        0.00001  -0.00000   0.00000  -0.00000  -0.00000   0.00001
   D20       -3.14159   0.00000   0.00000  -0.00000   0.00000  -3.14159
   D21        3.14155   0.00000   0.00000   0.00003   0.00003   3.14158
   D22       -0.00004   0.00000   0.00000   0.00003   0.00003  -0.00001
   D23       -0.00004   0.00000   0.00000   0.00003   0.00003  -0.00001
   D24        3.14156   0.00000   0.00000   0.00003   0.00003   3.14159
   D25        0.00001  -0.00000   0.00000  -0.00000  -0.00000   0.00000
   D26       -3.14159  -0.00000  -0.00000  -0.00000  -0.00000  -3.14159
   D27       -3.14159  -0.00000   0.00000  -0.00000  -0.00000  -3.14159
   D28        0.00000  -0.00000   0.00000  -0.00000   0.00000   0.00000
         Item               Value     Threshold  Converged?
 Maximum Force            0.007391     0.000450     NO 
 RMS     Force            0.001527     0.000300     NO 
 Maximum Displacement     0.030788     0.001800     NO 
 RMS     Displacement     0.009059     0.001200     NO 
 Predicted change in Energy=-2.811441D-04
 GradGradGradGradGradGradGradGradGradGradGradGradGradGradGradGradGradGrad

                          Input orientation:                          
 ---------------------------------------------------------------------
 Center     Atomic      Atomic             Coordinates (Angstroms)
 Number     Number       Type             X           Y           Z
 ---------------------------------------------------------------------
      1          6           0       -2.299250    1.222580    0.017170
      2          6           0       -1.041796    1.693632   -0.025397
      3          6           0        0.144385    0.866131    0.016508
      4          6           0        1.410459    1.345539   -0.026691
      5          6           0        2.593190    0.525007    0.014791
      6          6           0        3.859296    1.004327   -0.028412
      7          6           0        5.045374    0.176678    0.013490
      8          6           0        6.302906    0.647518   -0.029092
      9          1           0       -3.157472    1.884843   -0.017252
     10          1           0       -2.503030    0.157421    0.087869
     11          1           0       -0.877238    2.768616   -0.096350
     12          1           0       -0.013409   -0.210133    0.087484
     13          1           0        1.564322    2.422466   -0.097668
     14          1           0        2.439269   -0.551915    0.085773
     15          1           0        4.017191    2.080573   -0.099385
     16          1           0        4.880637   -0.898279    0.084452
     17          1           0        6.506878    1.712639   -0.099799
     18          1           0        7.161004   -0.014904    0.005327
 ---------------------------------------------------------------------
                    Distance matrix (angstroms):
                    1          2          3          4          5
     1  C    0.000000
     2  C    1.343464   0.000000
     3  C    2.469496   1.446906   0.000000
     4  C    3.712006   2.476838   1.354490   0.000000
     5  C    4.941921   3.818432   2.472451   1.440085   0.000000
     6  C    6.162581   4.949329   3.717752   2.472495   1.354489
     7  C    7.418722   6.273460   4.949247   3.818436   2.476801
     8  C    8.621481   7.418828   6.162569   4.941991   3.711998
     9  H    1.084584   2.124315   3.455600   4.599667   5.909339
    10  H    1.086779   2.123200   2.741563   4.091473   5.109983
    11  H    2.103623   1.089818   2.162383   2.695099   4.134006
    12  H    2.698644   2.166712   1.090082   2.112002   2.709257
    13  H    4.047235   2.707078   2.109843   1.090176   2.161381
    14  H    5.060346   4.143990   2.698545   2.161349   1.090180
    15  H    6.375513   5.074302   4.060410   2.709356   2.112013
    16  H    7.486878   6.465700   5.054685   4.133909   2.694997
    17  H    8.820529   7.549064   6.419612   5.110146   4.091522
    18  H    9.540856   8.378900   7.071725   5.909365   4.599622
                    6          7          8          9         10
     6  C    0.000000
     7  C    1.446907   0.000000
     8  C    2.469523   1.343462   0.000000
     9  H    7.071808   8.378869   9.540957   0.000000
    10  H    6.419499   7.548796   8.820340   1.850224   0.000000
    11  H    5.054908   6.465875   7.487193   2.446789   3.081473
    12  H    4.060319   5.074090   6.375342   3.779553   2.516607
    13  H    2.698670   4.144109   5.060565   4.752983   4.659207
    14  H    2.109835   2.707002   4.047163   6.105073   4.992944
    15  H    1.090080   2.166730   2.698719   7.177802   6.800505
    16  H    2.162356   1.089819   2.103623   8.506897   7.458757
    17  H    2.741622   2.123206   1.086779   9.666236   9.145074
    18  H    3.455611   2.124303   1.084583  10.491925   9.665924
                   11         12         13         14         15
    11  H    0.000000
    12  H    3.106918   0.000000
    13  H    2.465976   3.074751   0.000000
    14  H    4.696628   2.476378   3.105822   0.000000
    15  H    4.942555   4.639826   2.476582   3.074755   0.000000
    16  H    6.828757   4.942189   4.696643   2.465815   3.106911
    17  H    7.459241   6.800461   4.993267   4.659194   2.516728
    18  H    8.507154   7.177539   6.105263   4.752856   3.779623
                   16         17         18
    16  H    0.000000
    17  H    3.081477   0.000000
    18  H    2.446771   1.850227   0.000000
 Stoichiometry    C8H10
 Framework group  C1[X(C8H10)]
 Deg. of freedom    48
 Full point group                 C1      NOp   1
 Largest Abelian subgroup         C1      NOp   1
 Largest concise Abelian subgroup C1      NOp   1
                         Standard orientation:                         
 ---------------------------------------------------------------------
 Center     Atomic      Atomic             Coordinates (Angstroms)
 Number     Number       Type             X           Y           Z
 ---------------------------------------------------------------------
      1          6           0        4.306166   -0.198179    0.000014
      2          6           0        3.109516    0.412494    0.000001
      3          6           0        1.837959   -0.277927   -0.000007
      4          6           0        0.633680    0.342038   -0.000011
      5          6           0       -0.633667   -0.341831   -0.000011
      6          6           0       -1.837987    0.278050   -0.000007
      7          6           0       -3.109458   -0.412528    0.000001
      8          6           0       -4.306210    0.197943    0.000014
      9          1           0        5.233291    0.364636    0.000022
     10          1           0        4.389122   -1.281787    0.000019
     11          1           0        3.066638    1.501468   -0.000004
     12          1           0        1.873972   -1.367414   -0.000008
     13          1           0        0.601647    1.431743   -0.000014
     14          1           0       -0.601575   -1.431538   -0.000014
     15          1           0       -1.874102    1.367531   -0.000008
     16          1           0       -3.066398   -1.501497   -0.000004
     17          1           0       -4.389360    1.281536    0.000019
     18          1           0       -5.233230   -0.365043    0.000022
 ---------------------------------------------------------------------
 Rotational constants (GHZ):          19.6590789           0.5687329           0.5527422
 Standard basis: 6-31G(d,p) (6D, 7F)
 There are   170 symmetry adapted cartesian basis functions of A   symmetry.
 There are   170 symmetry adapted basis functions of A   symmetry.
   170 basis functions,   294 primitive gaussians,   170 cartesian basis functions
    29 alpha electrons       29 beta electrons
       nuclear repulsion energy       297.4379128462 Hartrees.
 NAtoms=   18 NActive=   18 NUniq=   18 SFac= 1.00D+00 NAtFMM=   60 NAOKFM=F Big=F
 Integral buffers will be    131072 words long.
 Raffenetti 2 integral format.
 Two-electron integral symmetry is turned on.
 One-electron integrals computed using PRISM.
 NBasis=   170 RedAO= T EigKep=  1.75D-03  NBF=   170
 NBsUse=   170 1.00D-06 EigRej= -1.00D+00 NBFU=   170
 Initial guess from the checkpoint file:  "checkpoint.chk"
 B after Tr=    -0.000000    0.000000   -0.000000
         Rot=    1.000000    0.000000   -0.000000   -0.000193 Ang=   0.02 deg.
 ExpMin= 1.61D-01 ExpMax= 3.05D+03 ExpMxC= 4.57D+02 IAcc=3 IRadAn=         5 AccDes= 0.00D+00
 Harris functional with IExCor=  402 and IRadAn=       5 diagonalized for initial guess.
 HarFok:  IExCor=  402 AccDes= 0.00D+00 IRadAn=         5 IDoV= 1 UseB2=F ITyADJ=14
 ICtDFT=  3500011 ScaDFX=  1.000000  1.000000  1.000000  1.000000
 FoFCou: FMM=F IPFlag=           0 FMFlag=      100000 FMFlg1=           0
         NFxFlg=           0 DoJE=T BraDBF=F KetDBF=T FulRan=T
         wScrn=  0.000000 ICntrl=       500 IOpCl=  0 I1Cent=   200000004 NGrid=           0
         NMat0=    1 NMatS0=      1 NMatT0=    0 NMatD0=    1 NMtDS0=    0 NMtDT0=    0
 Petite list used in FoFCou.
 Requested convergence on RMS density matrix=1.00D-08 within 128 cycles.
 Requested convergence on MAX density matrix=1.00D-06.
 Requested convergence on             energy=1.00D-06.
 No special actions if energy rises.
 Integral accuracy reduced to 1.0D-05 until final iterations.
 Initial convergence to 1.0D-05 achieved.  Increase integral accuracy.
 SCF Done:  E(RB3LYP) =  -310.821545000     A.U. after   11 cycles
            NFock= 11  Conv=0.30D-08     -V/T= 2.0101
 Calling FoFJK, ICntrl=      2127 FMM=F ISym2X=0 I1Cent= 0 IOpClX= 0 NMat=1 NMatS=1 NMatT=0.
 ***** Axes restored to original set *****
 -------------------------------------------------------------------
 Center     Atomic                   Forces (Hartrees/Bohr)
 Number     Number              X              Y              Z
 -------------------------------------------------------------------
      1        6           0.000101031    0.000292748   -0.000019797
      2        6           0.000051761    0.000127314   -0.000008667
      3        6          -0.000887046   -0.000096837    0.000014988
      4        6           0.000773099    0.000056978   -0.000010979
      5        6          -0.000775818   -0.000058856    0.000011506
      6        6           0.000886727    0.000096629   -0.000014685
      7        6          -0.000053502   -0.000129334    0.000008912
      8        6          -0.000101530   -0.000291858    0.000019887
      9        1          -0.000112533   -0.000031944    0.000003198
     10        1          -0.000116252   -0.000039177    0.000003613
     11        1          -0.000322905    0.000179679   -0.000008547
     12        1           0.000448043   -0.000212886    0.000009205
     13        1          -0.000453180    0.000246156   -0.000011678
     14        1           0.000455277   -0.000244805    0.000011197
     15        1          -0.000447794    0.000214147   -0.000009668
     16        1           0.000325184   -0.000179559    0.000008352
     17        1           0.000115877    0.000039063   -0.000003685
     18        1           0.000113561    0.000032542   -0.000003153
 -------------------------------------------------------------------
 Cartesian Forces:  Max     0.000887046 RMS     0.000285062

 GradGradGradGradGradGradGradGradGradGradGradGradGradGradGradGradGradGrad
 Berny optimization.
 Using GEDIIS/GDIIS optimizer.
 FormGI is forming the generalized inverse of G from B-inverse, IUseBI=4.
 Internal  Forces:  Max     0.000723435 RMS     0.000276007
 Search for a local minimum.
 Step number   3 out of a maximum of   79
 All quantities printed in internal units (Hartrees-Bohrs-Radians)
 Mixed Optimization -- En-DIIS/RFO-DIIS
 Update second derivatives using D2CorX and points    1    2    3
 DE= -2.74D-04 DEPred=-2.81D-04 R= 9.75D-01
 TightC=F SS=  1.41D+00  RLast= 4.72D-02 DXNew= 8.4853D-01 1.4150D-01
 Trust test= 9.75D-01 RLast= 4.72D-02 DXMaxT set to 5.05D-01
 ITU=  1  1  0
 Use linear search instead of GDIIS.
     Eigenvalues ---    0.01059   0.01066   0.01066   0.01993   0.01993
     Eigenvalues ---    0.01999   0.01999   0.02034   0.02034   0.02888
     Eigenvalues ---    0.02889   0.02949   0.02949   0.02949   0.02949
     Eigenvalues ---    0.14339   0.16000   0.16000   0.16000   0.16000
     Eigenvalues ---    0.16000   0.16000   0.16000   0.16015   0.16597
     Eigenvalues ---    0.21132   0.22000   0.22000   0.22000   0.22005
     Eigenvalues ---    0.22208   0.34457   0.34850   0.34880   0.35078
     Eigenvalues ---    0.35079   0.35080   0.35160   0.35191   0.35266
     Eigenvalues ---    0.35272   0.35371   0.35387   0.35870   0.57309
     Eigenvalues ---    0.57847   0.58343   0.62291
 RFO step:  Lambda=-2.08564133D-05 EMin= 1.05945386D-02
 Quartic linear search produced a step of -0.03177.
 Iteration  1 RMS(Cart)=  0.00286512 RMS(Int)=  0.00000283
 Iteration  2 RMS(Cart)=  0.00000297 RMS(Int)=  0.00000000
 Iteration  3 RMS(Cart)=  0.00000000 RMS(Int)=  0.00000000
 Variable       Old X    -DE/DX   Delta X   Delta X   Delta X     New X
                                 (Linear)    (Quad)   (Total)
    R1        2.53878   0.00004   0.00011  -0.00010   0.00001   2.53879
    R2        2.04957   0.00007   0.00005   0.00009   0.00015   2.04971
    R3        2.05371   0.00006  -0.00006   0.00027   0.00021   2.05393
    R4        2.73426   0.00063   0.00060   0.00057   0.00117   2.73543
    R5        2.05946   0.00013  -0.00013   0.00060   0.00047   2.05992
    R6        2.55962   0.00071   0.00006   0.00112   0.00118   2.56080
    R7        2.05996   0.00015  -0.00016   0.00070   0.00054   2.06049
    R8        2.72137   0.00072   0.00080   0.00046   0.00126   2.72263
    R9        2.06013   0.00018  -0.00016   0.00079   0.00063   2.06076
   R10        2.55961   0.00071   0.00006   0.00112   0.00118   2.56079
   R11        2.06014   0.00018  -0.00016   0.00079   0.00062   2.06077
   R12        2.73426   0.00063   0.00061   0.00057   0.00118   2.73543
   R13        2.05995   0.00015  -0.00016   0.00070   0.00054   2.06049
   R14        2.53878   0.00004   0.00011  -0.00010   0.00001   2.53878
   R15        2.05946   0.00013  -0.00013   0.00059   0.00046   2.05992
   R16        2.05371   0.00006  -0.00006   0.00027   0.00021   2.05393
   R17        2.04956   0.00007   0.00005   0.00009   0.00015   2.04971
    A1        2.12413   0.00006  -0.00014   0.00064   0.00050   2.12463
    A2        2.11907   0.00008  -0.00009   0.00066   0.00057   2.11964
    A3        2.03998  -0.00014   0.00022  -0.00129  -0.00107   2.03891
    A4        2.17229   0.00021  -0.00024   0.00144   0.00120   2.17349
    A5        2.08202  -0.00046   0.00003  -0.00264  -0.00261   2.07941
    A6        2.02887   0.00025   0.00021   0.00120   0.00141   2.03029
    A7        2.16874  -0.00002  -0.00017   0.00033   0.00016   2.16890
    A8        2.03518   0.00050  -0.00003   0.00295   0.00292   2.03811
    A9        2.07926  -0.00048   0.00020  -0.00329  -0.00308   2.07618
   A10        2.17134   0.00022  -0.00021   0.00142   0.00122   2.17256
   A11        2.07560  -0.00061   0.00023  -0.00391  -0.00368   2.07192
   A12        2.03624   0.00039  -0.00002   0.00248   0.00246   2.03870
   A13        2.17141   0.00021  -0.00020   0.00137   0.00117   2.17258
   A14        2.03618   0.00040  -0.00003   0.00252   0.00250   2.03868
   A15        2.07559  -0.00060   0.00023  -0.00389  -0.00367   2.07192
   A16        2.16869  -0.00001  -0.00018   0.00038   0.00020   2.16888
   A17        2.07928  -0.00048   0.00020  -0.00330  -0.00310   2.07618
   A18        2.03522   0.00049  -0.00003   0.00293   0.00290   2.03812
   A19        2.17234   0.00020  -0.00024   0.00141   0.00117   2.17351
   A20        2.02883   0.00026   0.00021   0.00123   0.00144   2.03027
   A21        2.08202  -0.00046   0.00003  -0.00264  -0.00261   2.07941
   A22        2.11908   0.00008  -0.00009   0.00065   0.00056   2.11964
   A23        2.12412   0.00006  -0.00014   0.00065   0.00051   2.12463
   A24        2.03999  -0.00014   0.00022  -0.00130  -0.00107   2.03891
    D1       -3.14159  -0.00000   0.00000  -0.00000  -0.00000  -3.14159
    D2        0.00000  -0.00000  -0.00000  -0.00000  -0.00000   0.00000
    D3        0.00000  -0.00000   0.00000  -0.00000  -0.00000   0.00000
    D4       -3.14159  -0.00000   0.00000  -0.00000  -0.00000  -3.14159
    D5        3.14158   0.00000  -0.00000   0.00001   0.00001   3.14159
    D6       -0.00001   0.00000  -0.00000   0.00001   0.00001  -0.00000
    D7       -0.00001   0.00000  -0.00000   0.00001   0.00001  -0.00000
    D8        3.14159   0.00000  -0.00000   0.00001   0.00001   3.14159
    D9       -3.14159  -0.00000   0.00000  -0.00000  -0.00000  -3.14159
   D10        0.00001  -0.00000   0.00000  -0.00000  -0.00000   0.00000
   D11        0.00001  -0.00000   0.00000  -0.00000  -0.00000   0.00000
   D12       -3.14159  -0.00000  -0.00000  -0.00000  -0.00000  -3.14159
   D13        3.14158   0.00000  -0.00000   0.00001   0.00001   3.14159
   D14       -0.00001   0.00000  -0.00000   0.00001   0.00001   0.00000
   D15       -0.00001   0.00000  -0.00000   0.00001   0.00001   0.00000
   D16        3.14159   0.00000  -0.00000   0.00001   0.00001  -3.14159
   D17       -3.14159  -0.00000   0.00000  -0.00000  -0.00000  -3.14159
   D18        0.00001  -0.00000   0.00000  -0.00000  -0.00000   0.00000
   D19        0.00001  -0.00000   0.00000  -0.00000  -0.00000   0.00000
   D20       -3.14159  -0.00000  -0.00000  -0.00000  -0.00000  -3.14159
   D21        3.14158   0.00000  -0.00000   0.00001   0.00001   3.14159
   D22       -0.00001   0.00000  -0.00000   0.00001   0.00001  -0.00000
   D23       -0.00001   0.00000  -0.00000   0.00001   0.00001  -0.00000
   D24        3.14159   0.00000  -0.00000   0.00001   0.00001   3.14159
   D25        0.00000  -0.00000   0.00000  -0.00000  -0.00000   0.00000
   D26       -3.14159  -0.00000   0.00000  -0.00000  -0.00000  -3.14159
   D27       -3.14159  -0.00000   0.00000  -0.00000  -0.00000  -3.14159
   D28        0.00000  -0.00000  -0.00000  -0.00000  -0.00000   0.00000
         Item               Value     Threshold  Converged?
 Maximum Force            0.000723     0.000450     NO 
 RMS     Force            0.000276     0.000300     YES
 Maximum Displacement     0.008564     0.001800     NO 
 RMS     Displacement     0.002865     0.001200     NO 
 Predicted change in Energy=-1.070590D-05
 GradGradGradGradGradGradGradGradGradGradGradGradGradGradGradGradGradGrad

                          Input orientation:                          
 ---------------------------------------------------------------------
 Center     Atomic      Atomic             Coordinates (Angstroms)
 Number     Number       Type             X           Y           Z
 ---------------------------------------------------------------------
      1          6           0       -2.301710    1.223793    0.017127
      2          6           0       -1.043698    1.693376   -0.025364
      3          6           0        0.143014    0.865552    0.016553
      4          6           0        1.409737    1.345011   -0.026661
      5          6           0        2.593903    0.525377    0.014749
      6          6           0        3.860637    1.004806   -0.028462
      7          6           0        5.047314    0.176930    0.013453
      8          6           0        6.305352    0.646439   -0.029035
      9          1           0       -3.159547    1.886678   -0.017334
     10          1           0       -2.507369    0.158881    0.087834
     11          1           0       -0.880654    2.768839   -0.096338
     12          1           0       -0.011639   -0.211454    0.087546
     13          1           0        1.559819    2.422807   -0.097660
     14          1           0        2.443801   -0.552418    0.085748
     15          1           0        4.015323    2.081806   -0.099453
     16          1           0        4.884208   -0.898524    0.084426
     17          1           0        6.511078    1.711339   -0.099739
     18          1           0        7.163148   -0.016500    0.005425
 ---------------------------------------------------------------------
                    Distance matrix (angstroms):
                    1          2          3          4          5
     1  C    0.000000
     2  C    1.343468   0.000000
     3  C    2.470832   1.447528   0.000000
     4  C    3.713683   2.478044   1.355115   0.000000
     5  C    4.945181   3.820730   2.474385   1.440752   0.000000
     6  C    6.166405   4.952438   3.720502   2.474400   1.355114
     7  C    7.423213   6.277066   4.952411   3.820732   2.478032
     8  C    8.626528   7.423250   6.166401   4.945206   3.713681
     9  H    1.084661   2.124676   3.456987   4.601287   5.912390
    10  H    1.086892   2.123634   2.743901   4.094353   5.114942
    11  H    2.102246   1.090064   2.164057   2.697782   4.137392
    12  H    2.703575   2.169395   1.090366   2.110908   2.708702
    13  H    4.045023   2.704736   2.108418   1.090509   2.163841
    14  H    5.067495   4.149529   2.703525   2.163830   1.090510
    15  H    6.376102   5.074452   4.060481   2.708735   2.110912
    16  H    7.493075   6.470709   5.059199   4.137359   2.697748
    17  H    8.827037   7.555164   6.425038   5.114999   4.094371
    18  H    9.545784   8.383135   7.075339   5.912401   4.601273
                    6          7          8          9         10
     6  C    0.000000
     7  C    1.447529   0.000000
     8  C    2.470842   1.343467   0.000000
     9  H    7.075366   8.383124   9.545819   0.000000
    10  H    6.424998   7.555071   8.826971   1.849778   0.000000
    11  H    5.059274   6.470769   7.493183   2.444955   3.080909
    12  H    4.060451   5.074381   6.376045   3.784506   2.523057
    13  H    2.703568   4.149571   5.067571   4.750401   4.658518
    14  H    2.108415   2.704710   4.044999   6.112064   5.002002
    15  H    1.090366   2.169403   2.703604   7.177993   6.802810
    16  H    2.164049   1.090065   2.102245   8.512914   7.466828
    17  H    2.743922   2.123635   1.086892   9.672566   9.153015
    18  H    3.456992   2.124672   1.084661  10.496696   9.672457
                   11         12         13         14         15
    11  H    0.000000
    12  H    3.109847   0.000000
    13  H    2.464883   3.072965   0.000000
    14  H    4.702755   2.479000   3.109184   0.000000
    15  H    4.943947   4.637934   2.479069   3.072966   0.000000
    16  H    6.834900   4.943823   4.702761   2.464828   3.109846
    17  H    7.466995   6.802796   5.002115   4.658513   2.523101
    18  H    8.513003   7.177904   6.112131   4.750357   3.784533
                   16         17         18
    16  H    0.000000
    17  H    3.080910   0.000000
    18  H    2.444948   1.849779   0.000000
 Stoichiometry    C8H10
 Framework group  C1[X(C8H10)]
 Deg. of freedom    48
 Full point group                 C1      NOp   1
 Largest Abelian subgroup         C1      NOp   1
 Largest concise Abelian subgroup C1      NOp   1
                         Standard orientation:                         
 ---------------------------------------------------------------------
 Center     Atomic      Atomic             Coordinates (Angstroms)
 Number     Number       Type             X           Y           Z
 ---------------------------------------------------------------------
      1          6           0        4.308727   -0.197658    0.000002
      2          6           0        3.111418    0.411733    0.000001
      3          6           0        1.839229   -0.278826   -0.000002
      4          6           0        0.634372    0.341381   -0.000002
      5          6           0       -0.634367   -0.341309   -0.000002
      6          6           0       -1.839238    0.278869   -0.000002
      7          6           0       -3.111398   -0.411744    0.000001
      8          6           0       -4.308742    0.197576    0.000002
      9          1           0        5.235595    0.365728    0.000004
     10          1           0        4.393471   -1.281241    0.000001
     11          1           0        3.070203    1.501017    0.000002
     12          1           0        1.871931   -1.368702   -0.000003
[...]
 1100586,-0.0113894,0.0145262,-0.0018663,0.1586513,0.0991309,-0.0148524
 ,-0.0111669,-0.0134559,-0.1062546,0.2195272,0.0059423,-0.0032448,-0.35
 43607,0.1267315,-0.0096267,0.0200038,-0.0131185,-0.0750382,-0.3072705,
 -0.0167489,0.0011171,0.1425475,0.1097046,-0.0280411,-0.009161,-0.02649
 73,-0.3016774,-0.0668244,0.0498103,-0.0012895,0.0717162,-0.0089278,0.0
 083846,-0.0027028,0.0085968,0.1312549,0.0428026,0.0132545,0.0000436,-0
 .0302438,-0.1003857,0.0155179,0.0028503,0.0150964,0.1345629,0.0170091,
 -0.0498673,0.0040947,0.0487288,-0.1144715,0.0138511,-0.0022673,0.01480
 66,0.1065747,0.0152745,-0.0106377,0.0016199,0.0214479,-0.1154105,0.014
 44,-0.0004506,0.0147508,0.1106503,0.0178225,-0.0168367,0.0019886,0.040
 9438,-0.115113,0.0141879,-0.0017395,0.0147479,0.1099851,0.0178226,-0.0
 168416,0.0019889,0.0409413,-0.1151149,0.0141877,-0.0017396,0.0147477,0
 .1099827,0.0152751,-0.0106412,0.0016202,0.0214443,-0.115409,0.0144395,
 -0.00045,0.0147505,0.1106523,0.0170092,-0.0498774,0.0040954,0.0487215,
 -0.1144708,0.0138505,-0.0022665,0.0148061,0.1065731,0.0428008,0.013244
 8,0.0000446,-0.0302532,-0.1003844,0.0155175,0.0028513,0.0150958,0.1345
 637,-0.0668183,0.0498108,-0.001289,0.0717193,-0.0089367,0.0083845,-0.0
 027027,0.0085969,0.1312548\Polar=268.8206187,-2.4280818,73.511317,-2.1
 576433,-2.7826617,30.2213535\Quadrupole=1.9040416,2.680896,-4.5849376,
 0.0302065,-0.0651373,-0.4711185\PG=C01 [X(C8H10)]\NImag=0\\0.81516913,
 0.05254463,0.66308099,-0.01030303,-0.03672658,0.10426386,-0.46468112,-
 0.13384540,0.01265975,0.77968483,-0.14886529,-0.17197483,0.00934675,0.
 09419244,0.66893493,0.01362893,0.00920120,-0.05020288,-0.01235200,-0.0
 3554560,0.13461632,-0.05836208,0.01197601,-0.00014561,-0.18199601,0.08
 613253,-0.00439141,0.75845709,-0.00219980,0.01661960,-0.00064088,0.083
 99563,-0.17782408,0.00668333,0.07475928,0.66677845,0.00076909,-0.00077
 824,0.00639984,-0.00425349,0.00666260,-0.06202200,-0.01092093,-0.03540
 556,0.13169156,0.01367950,0.00743280,-0.00058811,-0.06320189,-0.001373
 86,0.00074377,-0.40552424,-0.13341480,0.01202497,0.75869474,0.00458893
 ,-0.00394259,0.00037008,0.01690012,0.01485420,-0.00083836,-0.13600880,
 -0.17275369,0.00904522,0.07135420,0.66937341,-0.00040462,0.00034252,0.
 00246385,-0.00043537,-0.00066127,0.00444651,0.01219234,0.00902006,-0.0
 5370005,-0.01069480,-0.03547982,0.13262000,-0.00763811,-0.00116142,0.0
 0014889,0.01368419,-0.00682905,0.00042215,-0.06685806,0.01603469,-0.00
 034107,-0.18545054,0.08874438,-0.00450648,0.75870697,0.00048307,0.0021
 9460,-0.00014675,-0.00655497,-0.00255197,0.00098788,-0.00033080,0.0155
 6885,-0.00069749,0.08874506,-0.18061350,0.00694872,0.07135218,0.669362
 47,0.00004278,-0.00013081,0.00000095,0.00040443,0.00099055,0.01170582,
 0.00071491,-0.00085609,0.00475787,-0.00450644,0.00694869,-0.05999772,-
 0.01069487,-0.03547867,0.13262033,0.00392107,0.00164142,-0.00014500,-0
 .00896959,0.00123950,0.00001001,0.01857915,0.00498358,-0.00047334,-0.0
 6685588,-0.00033093,0.00071495,-0.40553254,-0.13600440,0.01219217,0.75
 845569,0.00112558,-0.00065100,0.00002383,0.00010604,0.00224384,-0.0001
 2543,0.00498302,-0.00463341,0.00043891,0.01603590,0.01556865,-0.000856
 09,-0.13340949,-0.17274747,0.00901955,0.07476065,0.66677981,-0.0001117
 2,0.00001883,-0.00011275,0.00008315,-0.00013642,0.00032381,-0.00047332
 ,0.00043890,0.00289344,-0.00034111,-0.00069747,0.00475779,0.01202473,0
 .00904468,-0.05369978,-0.01092160,-0.03540443,0.13169078,-0.00189760,-
 0.00061482,0.00005788,0.00362823,-0.00101790,0.00001338,-0.00896955,0.
 00010585,0.00008315,0.01368386,-0.00655472,0.00040443,-0.06320297,0.01
 690238,-0.00043539,-0.18198744,0.08399435,-0.00425307,0.77970160,-0.00
 004170,0.00061078,-0.00004018,-0.00101805,-0.00077829,-0.00005403,0.00
 123993,0.00224389,-0.00013642,-0.00682990,-0.00255167,0.00099051,-0.00
 137046,0.01485370,-0.00066125,0.08613231,-0.17783056,0.00666260,0.0941
 8847,0.66891807,0.00002091,-0.00003462,-0.00001611,0.00001338,-0.00005
 404,-0.00176523,0.00000999,-0.00012543,0.00032383,0.00042216,0.0009878
 6,0.01170582,0.00074363,-0.00083835,0.00444650,-0.00439098,0.00668330,
 -0.06202195,-0.01235339,-0.03554358,0.13461640,0.00068844,0.00054566,-
 0.00004157,-0.00189763,-0.00004176,0.00002091,0.00392114,0.00112566,-0
 .00011172,-0.00763812,0.00048310,0.00004279,0.01368006,0.00458859,-0.0
 0040460,-0.05836030,-0.00219658,0.00076901,-0.46470033,-0.14884925,0.0
 1362896,0.81517578,0.00054562,-0.00012234,0.00000469,-0.00061474,0.000
 61075,-0.00003462,0.00164120,-0.00065104,0.00001884,-0.00116090,0.0021
 9455,-0.00013080,0.00743177,-0.00394307,0.00034254,0.01197977,0.016619
 05,-0.00077826,-0.13382885,-0.17195848,0.00920010,0.05253812,0.6630762
 3,-0.00004156,0.00000469,0.00003245,0.00005788,-0.00004017,-0.00001611
 ,-0.00014499,0.00002383,-0.00011275,0.00014887,-0.00014674,0.00000095,
 -0.00058806,0.00037009,0.00246385,-0.00014570,-0.00064084,0.00639975,0
 .01265981,0.00934569,-0.05020251,-0.01030470,-0.03672493,0.10426310,-0
 .23285167,0.13800397,-0.00695344,-0.01860685,0.02102032,-0.00113528,-0
 .00275458,-0.00420494,0.00041249,-0.00060383,0.00139977,-0.00008246,-0
 .00026941,-0.00038679,0.00001290,-0.00009389,0.00017922,-0.00001129,-0
 .00000203,-0.00010694,0.00001016,-0.00005853,0.00004847,-0.00000259,0.
 24714938,0.14253441,-0.17021703,0.00757163,-0.01194195,0.01049432,-0.0
 0028997,-0.00202721,-0.00077714,0.00083206,-0.00017298,0.00078443,-0.0
 0003556,-0.00024736,-0.00012218,-0.00008737,0.00003552,0.00006700,-0.0
 0000890,-0.00003790,-0.00002081,0.00002329,0.00000611,0.00001617,-0.00
 000130,-0.15038014,0.17063200,-0.00724577,0.00761553,-0.03189086,0.000
 99164,-0.00060936,0.00423684,0.00027198,0.00085315,0.01175570,0.000019
 02,-0.00005080,0.00021039,0.00000390,-0.00008602,-0.00150792,-0.000002
 02,-0.00001029,-0.00006491,0.00000571,0.00002396,0.00033290,0.00000014
 ,-0.00000171,-0.00000301,0.00751608,-0.00817093,0.02187311,-0.06753131
 ,-0.04570999,0.00328004,-0.00086625,-0.03108790,0.00206044,0.00178711,
 -0.00187932,0.00003141,-0.00014211,0.00021778,-0.00001318,0.00004541,0
 .00007571,-0.00000198,0.00001992,-0.00000723,0.00000059,-0.00000226,0.
 00000781,-0.00000158,0.00000802,-0.00000540,0.00000018,0.00691951,0.02
 229100,-0.00148327,0.06462742,-0.04921784,-0.32817831,0.01949666,-0.00
 091682,-0.00913336,0.00090507,0.00217874,0.00096512,-0.00056641,-0.000
 29183,0.00043318,-0.00002845,0.00007719,-0.00005863,0.00002532,-0.0000
 9621,-0.00000172,0.00000318,0.00003836,-0.00002085,-0.00000633,-0.0000
 2528,-0.00000410,-0.00000012,-0.00554648,-0.01248387,0.00100660,0.0563
 3416,0.34698977,0.00350639,0.01946267,-0.03470596,0.00011363,0.0011974
 2,0.00467709,-0.00023044,-0.00052708,-0.00744953,0.00001971,-0.0000333
 9,-0.00004965,-0.00000207,0.00002534,0.00034381,0.00000634,0.00000232,
 0.00003292,-0.00000355,-0.00000603,-0.00011278,0.00000146,-0.00000032,
 -0.00000981,0.00031296,0.00073686,0.00223260,-0.00404874,-0.02152063,0
 .02335724,-0.00201110,-0.03207546,0.00214017,-0.06334620,-0.03698509,0
 .00259620,0.00508724,0.02590639,-0.00169171,0.00168264,0.00137983,-0.0
 0012043,-0.00009667,-0.00006579,0.00000314,-0.00003964,-0.00009415,0.0
 0000624,0.00004053,-0.00000693,0.00000022,-0.00000758,-0.00000324,0.00
 000015,0.00103427,0.00023734,-0.00009322,-0.00473256,-0.00178502,0.000
 26824,0.06645504,-0.00019422,-0.00882932,0.00091117,-0.03839223,-0.319
 63561,0.01830574,-0.00422738,-0.01730332,0.00135198,-0.00178329,0.0008
 2512,-0.00013644,0.00042094,0.00057574,-0.00005481,0.00002142,-0.00013
 651,0.00000715,0.00000030,0.00011918,-0.00000658,0.00006099,-0.0000709
 7,0.00000311,-0.00009867,0.00121840,-0.00052966,-0.00148044,0.00095094
 ,0.00066683,0.04213364,0.34223120,0.00008302,0.00122010,0.00518310,0.0
 0268700,0.01829211,-0.04290969,0.00025269,0.00105998,0.00294362,0.0000
 8367,-0.00016709,-0.00154726,-0.00002826,-0.00005009,-0.00020690,-0.00
 000122,0.00000827,-0.00002304,-0.00000025,-0.00000651,0.00001760,-0.00
 000399,0.00000373,-0.00001384,-0.00007153,-0.00053292,-0.00696985,0.00
 024859,0.00066979,0.01101740,-0.00309841,-0.02073136,0.02863689,0.0016
 5425,0.00101189,-0.00009568,0.00528722,0.02582701,-0.00168915,-0.06362
 787,-0.03582496,0.00254666,-0.00119285,-0.03100629,0.00206079,0.001415
 57,-0.00196463,0.00005333,-0.00010940,0.00023318,-0.00001455,0.0000156
 6,0.00005928,-0.00000146,0.00002192,0.00000808,-0.00000061,0.00012702,
 -0.00037202,0.00002013,-0.00023630,-0.00095595,0.00006671,-0.00377315,
 0.00267832,-0.00010186,0.06533450,-0.00123005,0.00114419,-0.00015751,-
 0.00447288,-0.01667302,0.00130951,-0.03730040,-0.31866025,0.01838249,-
 0.00080266,-0.01044237,0.00100475,0.00212613,0.00080435,-0.00047012,-0
 .00027589,0.00047018,-0.00003143,0.00002854,-0.00003242,0.00001854,-0.
 00004815,-0.00001644,0.00000235,0.00013126,0.00040513,-0.00004499,0.00
 096977,0.00055126,-0.00002676,0.00250472,-0.00073699,0.00025231,0.0405
 8542,0.34214254,0.00004898,-0.00017923,-0.00147050,0.00026596,0.001015
 89,0.00288165,0.00264187,0.01836819,-0.04058655,0.00011188,0.00129745,
 0.00492374,-0.00021063,-0.00043046,-0.00613222,0.00001829,-0.00003636,
 -0.00005615,0.00000052,0.00001824,0.00025807,0.00000302,0.00000180,0.0
 0001259,-0.00001234,-0.00004011,-0.00026973,-0.00005755,-0.00000809,0.
 00028333,-0.00009066,0.00025062,0.00353406,-0.00300642,-0.02083550,0.0
 2670884,-0.00004819,0.00029492,-0.00001760,0.00133021,-0.00208017,0.00
 006062,-0.00119817,-0.03106986,0.00206450,-0.06352891,-0.03472756,0.00
 246945,0.00530283,0.02590130,-0.00169480,0.00168211,0.00137116,-0.0001
 2097,-0.00010109,-0.00008400,0.00000411,-0.00005506,-0.00009214,0.0000
 0617,0.00000456,0.00008443,-0.00000397,0.00014273,0.00021662,-0.000012
 06,-0.00028174,0.00106323,-0.00006372,-0.00472884,-0.00155146,0.000237
 01,0.06549431,-0.00018124,0.00044521,-0.00002054,0.00216860,0.00082422
 ,-0.00047846,-0.00096981,-0.01077595,0.00102499,-0.03601791,-0.3182340
 7,0.01830635,-0.00409653,-0.01669413,0.00130241,-0.00173094,0.00080416
 ,-0.00014297,0.00036493,0.00056369,-0.00005517,0.00011418,-0.00010460,
 0.00000359,-0.00007856,-0.00000906,0.00001149,0.00023121,-0.00002762,0
 .00002154,-0.00088052,0.00067434,-0.00002063,-0.00157208,0.00040019,0.
 00059579,0.03932222,0.34209777,0.00001313,-0.00002515,0.00010123,-0.00
 021354,-0.00043729,-0.00623493,0.00012232,0.00131670,0.00487738,0.0025
 5268,0.01829385,-0.04113911,0.00024083,0.00101169,0.00280769,0.0000791
 8,-0.00017303,-0.00166110,-0.00002486,-0.00005082,-0.00023298,-0.00000
 714,0.00000559,-0.00003216,0.00000655,0.00000991,0.00015650,-0.0000130
 0,0.00002168,0.00033962,0.00006170,-0.00003947,0.00022433,0.00023834,0
 .00059560,0.00935685,-0.00292079,-0.02078236,0.02729022,-0.00005505,-0
 .00009213,0.00000617,-0.00010106,-0.00008402,0.00000411,0.00168189,0.0
 0137160,-0.00012100,0.00530245,0.02590133,-0.00169478,-0.06352984,-0.0
 3473203,0.00246973,-0.00119911,-0.03106994,0.00206447,0.00132999,-0.00
 208049,0.00006063,-0.00004817,0.00029497,-0.00001760,0.00001682,-0.000
 00640,0.00000048,-0.00004977,-0.00001330,0.00000138,0.00003186,-0.0002
 5297,0.00001692,-0.00028858,-0.00087744,0.00006185,-0.00372512,0.00250
 133,-0.00008858,0.06549706,0.00011419,-0.00010461,0.00000359,0.0003649
 0,0.00056377,-0.00005517,-0.00173116,0.00080415,-0.00014296,-0.0040964
 6,-0.01669512,0.00130247,-0.03602202,-0.31823019,0.01830584,-0.0009702
 1,-0.01077561,0.00102495,0.00216885,0.00082415,-0.00047847,-0.00018122
 ,0.00044528,-0.00002054,0.00001735,0.00001109,0.00000064,0.00003558,0.
 00000762,-0.00000056,-0.00024346,0.00011348,0.00000105,0.00101566,0.00
 064302,-0.00003510,0.00250142,-0.00073926,0.00026792,0.03932644,0.3420
 9421,-0.00000714,0.00000559,-0.00003215,-0.00002486,-0.00005082,-0.000
 23296,0.00007921,-0.00017303,-0.00166116,0.00024077,0.00101176,0.00280
 785,0.00255299,0.01829333,-0.04113946,0.00012230,0.00131666,0.00487739
 ,-0.00021355,-0.00043727,-0.00623508,0.00001312,-0.00002516,0.00010124
 ,-0.00000105,0.00000087,0.00002364,-0.00000177,-0.00000009,0.00000428,
 0.00001630,0.00000114,0.00009299,-0.00006030,-0.00001675,0.00025324,-0
 .00008858,0.00026793,0.00377232,-0.00292104,-0.02078184,0.02729052,0.0
 0002192,0.00000808,-0.00000061,0.00001566,0.00005930,-0.00000147,-0.00
 010943,0.00023314,-0.00001455,0.00141583,-0.00196428,0.00005330,-0.001
 19340,-0.03100665,0.00206077,-0.06363046,-0.03583317,0.00254715,0.0052
 8839,0.02582602,-0.00168905,0.00165437,0.00101159,-0.00009567,0.000000
 02,-0.00000027,-0.00000077,0.00001045,0.00000494,-0.00000025,-0.000049
 52,0.00004087,-0.00000206,0.00013989,0.00023153,-0.00001283,-0.0002885
 4,0.00101565,-0.00006030,-0.00472891,-0.00157202,0.00023834,0.06533593
 ,-0.00004815,-0.00001645,0.00000235,0.00002855,-0.00003241,0.00001854,
 -0.00027590,0.00047009,-0.00003142,0.00212584,0.00080441,-0.00047009,-
 0.00080274,-0.01044115,0.00100464,-0.03730869,-0.31865986,0.01838191,-
 0.00447386,-0.01667329,0.00130950,-0.00122993,0.00114418,-0.00015750,-
 0.00000558,-0.00000139,-0.00000508,0.00000423,0.00000350,0.00000084,-0
 .00001710,0.00000899,0.00000025,0.00023152,-0.00001045,0.00002148,-0.0
 0087746,0.00064290,-0.00001675,-0.00155126,0.00040027,0.00059557,0.040
 59467,0.34214158,0.00000302,0.00000180,0.00001259,0.00000052,0.0000182
 5,0.00025806,0.00001830,-0.00003636,-0.00005617,-0.00021061,-0.0004304
 6,-0.00613210,0.00011192,0.00129739,0.00492371,0.00264234,0.01836760,-
 0.04058615,0.00026601,0.00101583,0.00288154,0.00004896,-0.00017923,-0.
 00147046,-0.00000042,-0.00000513,-0.00008063,-0.00000021,0.00000083,0.
 00001713,0.00000168,-0.00000031,0.00001035,-0.00001283,0.00002148,0.00
 035591,0.00006185,-0.00003509,0.00025324,0.00023700,0.00059578,0.00935
 687,-0.00300699,-0.02083481,0.02670847,-0.00000758,-0.00000325,0.00000
 015,0.00004053,-0.00000692,0.00000022,-0.00003964,-0.00009414,0.000006
 24,-0.00009663,-0.00006580,0.00000314,0.00168245,0.00138016,-0.0001204
 5,0.00508784,0.02590542,-0.00169160,-0.06335027,-0.03699973,0.00259716
 ,-0.00201311,-0.03207582,0.00214016,0.00000271,-0.00000080,0.00000003,
 -0.00000310,-0.00000038,0.00000010,0.00000697,-0.00000397,0.00000024,-
 0.00004951,-0.00001710,0.00000168,0.00003185,-0.00024345,0.00001630,-0
 .00028176,-0.00088047,0.00006170,-0.00377293,0.00250480,-0.00009065,0.
 06646062,0.00006100,-0.00007097,0.00000311,0.00000030,0.00011918,-0.00
 000659,0.00002143,-0.00013652,0.00000715,0.00042095,0.00057580,-0.0000
 5481,-0.00178352,0.00082511,-0.00013643,-0.00422830,-0.01730502,0.0013
 5207,-0.03840641,-0.31962950,0.01830496,-0.00019467,-0.00882755,0.0009
 1103,0.00001225,0.00000374,-0.00000034,0.00000121,0.00000466,0.,-0.000
 00397,-0.00001306,0.00000120,0.00004088,0.00000899,-0.00000031,-0.0002
 5298,0.00011349,0.00000114,0.00106328,0.00067444,-0.00003947,0.0026785
 3,-0.00073724,0.00025063,0.04214883,0.34222489,-0.00000399,0.00000373,
 -0.00001384,-0.00000025,-0.00000652,0.00001759,-0.00000122,0.00000827,
 -0.00002304,-0.00002826,-0.00005009,-0.00020689,0.00008368,-0.00016710
 ,-0.00154729,0.00025273,0.00105999,0.00294374,0.00268792,0.01829132,-0
 .04290986,0.00008308,0.00122005,0.00518309,-0.00000081,-0.00000021,0.0
 0000040,0.,0.00000002,0.00000498,0.00000024,0.00000120,0.00000485,-0.0
 0000206,0.00000025,0.00001035,0.00001692,0.00000105,0.00009299,-0.0000
 6372,-0.00002063,0.00022433,-0.00010186,0.00025231,0.00353405,-0.00309
 945,-0.02073050,0.02863702,0.00000802,-0.00000540,0.00000018,-0.000002
 25,0.00000781,-0.00000158,0.00001992,-0.00000723,0.00000059,0.00004543
 ,0.00007573,-0.00000198,-0.00014215,0.00021777,-0.00001317,0.00178726,
 -0.00187916,0.00003137,-0.00086803,-0.03108846,0.00206043,-0.06753730,
 -0.04572648,0.00328115,0.00000183,0.00000019,0.00000025,0.00000124,0.0
 0000163,-0.00000023,-0.00000310,0.00000121,0.,0.00001045,0.00000423,-0
 .00000021,-0.00004977,0.00003557,-0.00000177,0.00014274,0.00023121,-0.
 00001300,-0.00023629,0.00096979,-0.00005755,-0.00473272,-0.00148014,0.
 00024861,0.06463415,-0.00002528,-0.00000410,-0.00000012,0.00003836,-0.
 00002085,-0.00000633,-0.00009621,-0.00000172,0.00000318,0.00007719,-0.
 00005862,0.00002532,-0.00029181,0.00043313,-0.00002845,0.00217852,0.00
 096515,-0.00056639,-0.00091730,-0.00913132,0.00090491,-0.04923413,-0.3
 2817279,0.01949584,-0.00000251,0.00000073,0.00000182,0.00000163,0.0000
 0167,-0.00000084,-0.00000038,0.00000466,0.00000002,0.00000494,0.000003
 50,0.00000084,-0.00001329,0.00000762,-0.00000009,0.00021661,-0.0000276
 4,0.00002168,-0.00095593,0.00055119,-0.00000809,-0.00178467,0.00095115
 ,0.00066975,0.05635197,0.34698313,0.00000146,-0.00000032,-0.00000981,-
 0.00000355,-0.00000604,-0.00011278,0.00000634,0.00000232,0.00003293,-0
 .00000207,0.00002534,0.00034380,0.00001971,-0.00003339,-0.00004967,-0.
 00023044,-0.00052707,-0.00744946,0.00011370,0.00119736,0.00467706,0.00
 350747,0.01946183,-0.03470577,0.00000042,0.00000179,0.00002842,-0.0000
 0023,-0.00000084,-0.00001110,0.00000010,0.,0.00000498,-0.00000025,0.00
 000084,0.00001714,0.00000138,-0.00000056,0.00000428,-0.00001206,0.0000
 2154,0.00033962,0.00006671,-0.00002675,0.00028333,0.00026826,0.0006668
 0,0.01101744,-0.00404994,-0.02151969,0.02335706,-0.00005853,0.00004847
 ,-0.00000259,-0.00000203,-0.00010695,0.00001016,-0.00009389,0.00017923
 ,-0.00001129,-0.00026943,-0.00038679,0.00001290,-0.00060380,0.00139983
 ,-0.00008246,-0.00275479,-0.00420482,0.00041252,-0.01860670,0.02102209
 ,-0.00113528,-0.23283361,0.13800796,-0.00695288,-0.00001533,-0.0000019
 8,-0.00000034,0.00000183,-0.00000251,0.00000042,0.00000271,0.00001225,
 -0.00000081,0.00000002,-0.00000558,-0.00000042,0.00001682,0.00001735,-
 0.00000105,0.00000456,-0.00007856,0.00000655,0.00012699,0.00013128,-0.
 00001234,0.00103428,-0.00009866,-0.00007156,0.00692057,-0.00554771,0.0
 0031301,0.24713033,0.00000612,0.00001617,-0.00000130,-0.00003790,-0.00
 002080,0.00002329,0.00003553,0.00006699,-0.00000890,-0.00024734,-0.000
 12215,-0.00008737,-0.00017290,0.00078432,-0.00003555,-0.00202713,-0.00
 077669,0.00083200,-0.01194026,0.01049372,-0.00028990,0.14253857,-0.170
 23485,0.00757195,-0.00000198,-0.00000153,-0.00000400,0.00000019,0.0000
 0073,0.00000179,-0.00000080,0.00000373,-0.00000021,-0.00000027,-0.0000
 0139,-0.00000513,-0.00000640,0.00001109,0.00000088,0.00008443,-0.00000
 907,0.00000991,-0.00037201,0.00040510,-0.00004011,0.00023730,0.0012184
 2,-0.00053290,0.02228976,-0.01248490,0.00073683,-0.15038490,0.17065111
 ,0.00000014,-0.00000171,-0.00000301,0.00000571,0.00002396,0.00033290,-
 0.00000202,-0.00001029,-0.00006491,0.00000390,-0.00008602,-0.00150792,
 0.00001902,-0.00005080,0.00021043,0.00027200,0.00085311,0.01175566,0.0
 0099155,-0.00060941,0.00423679,-0.00724520,0.00761586,-0.03189059,-0.0
 0000034,-0.00000400,-0.00006362,0.00000025,0.00000182,0.00002842,0.000
 00003,-0.00000033,0.00000040,-0.00000077,-0.00000508,-0.00008063,0.000
 00048,0.00000065,0.00002365,-0.00000397,0.00001149,0.00015651,0.000020
 13,-0.00004499,-0.00026974,-0.00009323,-0.00052965,-0.00696993,-0.0014
 8316,0.00100665,0.00223255,0.00751548,-0.00817126,0.02187304\\-0.00005
 113,0.00003659,-0.00000187,-0.00015968,-0.00011368,0.00000886,0.000249
 98,0.00020806,-0.00001585,-0.00027526,-0.00015088,0.00001238,0.0002763
 2,0.00015158,-0.00001248,-0.00025054,-0.00020786,0.00001584,0.00016109
 ,0.00011438,-0.00000896,0.00005094,-0.00003705,0.00000189,0.00000805,-
 0.00001720,0.00000102,0.00004250,-0.00000414,-0.00000013,0.00006189,0.
 00001845,-0.00000178,-0.00007183,-0.00002992,0.00000266,0.00006249,0.0
 0001056,-0.00000127,-0.00006316,-0.00001090,0.00000133,0.00007163,0.00
 002965,-0.00000258,-0.00006258,-0.00001863,0.00000182,-0.00004242,0.00
 000403,0.00000016,-0.00000827,0.00001696,-0.00000103\\\@


 IF YOU DON'T HAVE THE LAW - ARGUE THE FACTS.
 IF YOU DON'T HAVE THE FACTS - ARGUE THE LAW.
 IF YOU DON'T HAVE EITHER - POUND THE TABLE.
 Job cpu time:       0 days  0 hours 15 minutes 18.8 seconds.
 Elapsed time:       0 days  0 hours  7 minutes 39.5 seconds.
 File lengths (MBytes):  RWF=     59 Int=      0 D2E=      0 Chk=     30 Scr=      1
 Normal termination of Gaussian 16 at Thu Nov  9 19:40:16 2023.
