 Entering Gaussian System, Link 0=g16
 Input=./com/5.com
 Output=./log/5.log
 Initial command:
 /home/shohei/gaussian/g16/l1.exe "/home/shohei/gaussian/scratch/Gau-12857.inp" -scrdir="/home/shohei/gaussian/scratch/"
 Entering Link 1 = /home/shohei/gaussian/g16/l1.exe PID=     12859.
  
 Copyright (c) 1988-2017, Gaussian, Inc.  All Rights Reserved.
  
 This is part of the Gaussian(R) 16 program.  It is based on
 the Gaussian(R) 09 system (copyright 2009, Gaussian, Inc.),
 the Gaussian(R) 03 system (copyright 2003, Gaussian, Inc.),
 the Gaussian(R) 98 system (copyright 1998, Gaussian, Inc.),
 the Gaussian(R) 94 system (copyright 1995, Gaussian, Inc.),
 the Gaussian 92(TM) system (copyright 1992, Gaussian, Inc.),
 the Gaussian 90(TM) system (copyright 1990, Gaussian, Inc.),
 the Gaussian 88(TM) system (copyright 1988, Gaussian, Inc.),
 the Gaussian 86(TM) system (copyright 1986, Carnegie Mellon
 University), and the Gaussian 82(TM) system (copyright 1983,
 Carnegie Mellon University). Gaussian is a federally registered
 trademark of Gaussian, Inc.
  
 This software contains proprietary and confidential information,
 including trade secrets, belonging to Gaussian, Inc.
  
 This software is provided under written license and may be
 used, copied, transmitted, or stored only in accord with that
 written license.
  
 The following legend is applicable only to US Government
 contracts under FAR:
  
                    RESTRICTED RIGHTS LEGEND
  
 Use, reproduction and disclosure by the US Government is
 subject to restrictions as set forth in subparagraphs (a)
 and (c) of the Commercial Computer Software - Restricted
 Rights clause in FAR 52.227-19.
  
 Gaussian, Inc.
 340 Quinnipiac St., Bldg. 40, Wallingford CT 06492
  
  
 ---------------------------------------------------------------
 Warning -- This program may not be used in any manner that
 competes with the business of Gaussian, Inc. or will provide
 assistance to any competitor of Gaussian, Inc.  The licensee
 of this program is prohibited from giving any competitor of
 Gaussian, Inc. access to this program.  By using this program,
 the user acknowledges that Gaussian, Inc. is engaged in the
 business of creating and licensing software in the field of
 computational chemistry and represents and warrants to the
 licensee that it is not a competitor of Gaussian, Inc. and that
 it will not use this program in any manner prohibited above.
 ---------------------------------------------------------------
  

 Cite this work as:
 Gaussian 16, Revision B.01,
 M. J. Frisch, G. W. Trucks, H. B. Schlegel, G. E. Scuseria, 
 M. A. Robb, J. R. Cheeseman, G. Scalmani, V. Barone, 
 G. A. Petersson, H. Nakatsuji, X. Li, M. Caricato, A. V. Marenich, 
 J. Bloino, B. G. Janesko, R. Gomperts, B. Mennucci, H. P. Hratchian, 
 J. V. Ortiz, A. F. Izmaylov, J. L. Sonnenberg, D. Williams-Young, 
 F. Ding, F. Lipparini, F. Egidi, J. Goings, B. Peng, A. Petrone, 
 T. Henderson, D. Ranasinghe, V. G. Zakrzewski, J. Gao, N. Rega, 
 G. Zheng, W. Liang, M. Hada, M. Ehara, K. Toyota, R. Fukuda, 
 J. Hasegawa, M. Ishida, T. Nakajima, Y. Honda, O. Kitao, H. Nakai, 
 T. Vreven, K. Throssell, J. A. Montgomery, Jr., J. E. Peralta, 
 F. Ogliaro, M. J. Bearpark, J. J. Heyd, E. N. Brothers, K. N. Kudin, 
 V. N. Staroverov, T. A. Keith, R. Kobayashi, J. Normand, 
 K. Raghavachari, A. P. Rendell, J. C. Burant, S. S. Iyengar, 
 J. Tomasi, M. Cossi, J. M. Millam, M. Klene, C. Adamo, R. Cammi, 
 J. W. Ochterski, R. L. Martin, K. Morokuma, O. Farkas, 
 J. B. Foresman, and D. J. Fox, Gaussian, Inc., Wallingford CT, 2016.
 
 ******************************************
 Gaussian 16:  EM64L-G16RevB.01 20-Dec-2017
                 9-Nov-2023 
 ******************************************
 %chk=checkpoint.chk
 %nprocshared=4
 Will use up to    4 processors via shared memory.
 ---------------------------
 # B3LYP/6-31G(d,p) OPT FREQ
 ---------------------------
 1/18=20,19=15,26=3,38=1/1,3;
 2/9=110,12=2,17=6,18=5,40=1/2;
 3/5=1,6=6,7=101,11=2,25=1,30=1,71=1,74=-5/1,2,3;
 4//1;
 5/5=2,38=5/2;
 6/7=2,8=2,9=2,10=2,28=1/1;
 7//1,2,3,16;
 1/18=20,19=15,26=3/3(2);
 2/9=110/2;
 99//99;
 2/9=110/2;
 3/5=1,6=6,7=101,11=2,25=1,30=1,71=1,74=-5/1,2,3;
 4/5=5,16=3,69=1/1;
 5/5=2,38=5/2;
 7//1,2,3,16;
 1/18=20,19=15,26=3/3(-5);
 2/9=110/2;
 6/7=2,8=2,9=2,10=2,19=2,28=1/1;
 99/9=1/99;
 -----
 5poly
 -----
 Symbolic Z-matrix:
 Charge =  0 Multiplicity = 1
 C                    -2.28235   1.18856   0.01449 
 C                    -1.05767   1.71844  -0.0262 
 C                     0.14598   0.86302   0.01657 
 C                     1.3732    1.39844  -0.02487 
 C                     2.57702   0.54239   0.01768 
 C                     3.8047    1.07678  -0.02445 
 C                     5.00778   0.21961   0.0178 
 C                     6.23585   0.75289  -0.02501 
 C                     7.43761  -0.10529   0.01705 
 C                     8.66359   0.42133  -0.02573 
 H                    -3.15386   1.83438  -0.01813 
 H                    -2.42804   0.11431   0.08016 
 H                    -0.95334   2.79815  -0.09196 
 H                     0.0288   -0.21634   0.08253 
 H                     1.48976   2.47786  -0.09094 
 H                     2.45979  -0.53692   0.08397 
 H                     3.92234   2.15604  -0.0909 
 H                     4.88979  -0.85961   0.08447 
 H                     6.35505   1.83197  -0.0918 
 H                     7.33071  -1.18471   0.08388 
 H                     8.81206   1.49509  -0.09263 
 H                     9.53337  -0.22688   0.0063 
 

 GradGradGradGradGradGradGradGradGradGradGradGradGradGradGradGradGradGrad
 Berny optimization.
 Initialization pass.
                           ----------------------------
                           !    Initial Parameters    !
                           ! (Angstroms and Degrees)  !
 --------------------------                            --------------------------
 ! Name  Definition              Value          Derivative Info.                !
 --------------------------------------------------------------------------------
 ! R1    R(1,2)                  1.335          estimate D2E/DX2                !
 ! R2    R(1,11)                 1.0852         estimate D2E/DX2                !
 ! R3    R(1,12)                 1.0861         estimate D2E/DX2                !
 ! R4    R(2,3)                  1.4773         estimate D2E/DX2                !
 ! R5    R(2,13)                 1.0867         estimate D2E/DX2                !
 ! R6    R(3,4)                  1.3396         estimate D2E/DX2                !
 ! R7    R(3,14)                 1.0877         estimate D2E/DX2                !
 ! R8    R(4,5)                  1.4778         estimate D2E/DX2                !
 ! R9    R(4,15)                 1.0877         estimate D2E/DX2                !
 ! R10   R(5,6)                  1.3396         estimate D2E/DX2                !
 ! R11   R(5,16)                 1.0877         estimate D2E/DX2                !
 ! R12   R(6,7)                  1.4778         estimate D2E/DX2                !
 ! R13   R(6,17)                 1.0877         estimate D2E/DX2                !
 ! R14   R(7,8)                  1.3395         estimate D2E/DX2                !
 ! R15   R(7,18)                 1.0877         estimate D2E/DX2                !
 ! R16   R(8,9)                  1.4773         estimate D2E/DX2                !
 ! R17   R(8,19)                 1.0877         estimate D2E/DX2                !
 ! R18   R(9,10)                 1.335          estimate D2E/DX2                !
 ! R19   R(9,20)                 1.0867         estimate D2E/DX2                !
 ! R20   R(10,21)                1.086          estimate D2E/DX2                !
 ! R21   R(10,22)                1.0852         estimate D2E/DX2                !
 ! A1    A(2,1,11)             119.9728         estimate D2E/DX2                !
 ! A2    A(2,1,12)             121.1639         estimate D2E/DX2                !
 ! A3    A(11,1,12)            118.8633         estimate D2E/DX2                !
 ! A4    A(1,2,3)              121.1127         estimate D2E/DX2                !
 ! A5    A(1,2,13)             118.9638         estimate D2E/DX2                !
 ! A6    A(3,2,13)             119.9236         estimate D2E/DX2                !
 ! A7    A(2,3,4)              120.937          estimate D2E/DX2                !
 ! A8    A(2,3,14)             119.2482         estimate D2E/DX2                !
 ! A9    A(4,3,14)             119.8148         estimate D2E/DX2                !
 ! A10   A(3,4,5)              120.9214         estimate D2E/DX2                !
 ! A11   A(3,4,15)             119.7825         estimate D2E/DX2                !
 ! A12   A(5,4,15)             119.296          estimate D2E/DX2                !
 ! A13   A(4,5,6)              120.968          estimate D2E/DX2                !
 ! A14   A(4,5,16)             119.2608         estimate D2E/DX2                !
 ! A15   A(6,5,16)             119.7712         estimate D2E/DX2                !
 ! A16   A(5,6,7)              120.9167         estimate D2E/DX2                !
 ! A17   A(5,6,17)             119.7928         estimate D2E/DX2                !
 ! A18   A(7,6,17)             119.2905         estimate D2E/DX2                !
 ! A19   A(6,7,8)              120.9655         estimate D2E/DX2                !
 ! A20   A(6,7,18)             119.2719         estimate D2E/DX2                !
 ! A21   A(8,7,18)             119.7626         estimate D2E/DX2                !
 ! A22   A(7,8,9)              120.9045         estimate D2E/DX2                !
 ! A23   A(7,8,19)             119.8273         estimate D2E/DX2                !
 ! A24   A(9,8,19)             119.2682         estimate D2E/DX2                !
 ! A25   A(8,9,10)             121.1303         estimate D2E/DX2                !
 ! A26   A(8,9,20)             119.9147         estimate D2E/DX2                !
 ! A27   A(10,9,20)            118.9549         estimate D2E/DX2                !
 ! A28   A(9,10,21)            121.1673         estimate D2E/DX2                !
 ! A29   A(9,10,22)            119.9645         estimate D2E/DX2                !
 ! A30   A(21,10,22)           118.8683         estimate D2E/DX2                !
 ! D1    D(11,1,2,3)          -179.9965         estimate D2E/DX2                !
 ! D2    D(11,1,2,13)           -0.0009         estimate D2E/DX2                !
 ! D3    D(12,1,2,3)             0.0007         estimate D2E/DX2                !
 ! D4    D(12,1,2,13)          179.9963         estimate D2E/DX2                !
 ! D5    D(1,2,3,4)            179.9801         estimate D2E/DX2                !
 ! D6    D(1,2,3,14)            -0.0114         estimate D2E/DX2                !
 ! D7    D(13,2,3,4)            -0.0155         estimate D2E/DX2                !
 ! D8    D(13,2,3,14)          179.993          estimate D2E/DX2                !
 ! D9    D(2,3,4,5)           -179.9879         estimate D2E/DX2                !
 ! D10   D(2,3,4,15)             0.0011         estimate D2E/DX2                !
 ! D11   D(14,3,4,5)             0.0036         estimate D2E/DX2                !
 ! D12   D(14,3,4,15)          179.9926         estimate D2E/DX2                !
 ! D13   D(3,4,5,6)            179.9629         estimate D2E/DX2                !
 ! D14   D(3,4,5,16)            -0.0242         estimate D2E/DX2                !
 ! D15   D(15,4,5,6)            -0.0262         estimate D2E/DX2                !
 ! D16   D(15,4,5,16)          179.9867         estimate D2E/DX2                !
 ! D17   D(4,5,6,7)           -179.9835         estimate D2E/DX2                !
 ! D18   D(4,5,6,17)             0.0035         estimate D2E/DX2                !
 ! D19   D(16,5,6,7)             0.0035         estimate D2E/DX2                !
 ! D20   D(16,5,6,17)          179.9906         estimate D2E/DX2                !
 ! D21   D(5,6,7,8)            179.9629         estimate D2E/DX2                !
 ! D22   D(5,6,7,18)            -0.0262         estimate D2E/DX2                !
 ! D23   D(17,6,7,8)            -0.0242         estimate D2E/DX2                !
 ! D24   D(17,6,7,18)          179.9867         estimate D2E/DX2                !
 ! D25   D(6,7,8,9)           -179.9879         estimate D2E/DX2                !
 ! D26   D(6,7,8,19)             0.0036         estimate D2E/DX2                !
 ! D27   D(18,7,8,9)             0.0011         estimate D2E/DX2                !
 ! D28   D(18,7,8,19)          179.9926         estimate D2E/DX2                !
 ! D29   D(7,8,9,10)           179.98           estimate D2E/DX2                !
 ! D30   D(7,8,9,20)            -0.0155         estimate D2E/DX2                !
 ! D31   D(19,8,9,10)           -0.0115         estimate D2E/DX2                !
 ! D32   D(19,8,9,20)          179.993          estimate D2E/DX2                !
 ! D33   D(8,9,10,21)            0.0007         estimate D2E/DX2                !
 ! D34   D(8,9,10,22)         -179.9965         estimate D2E/DX2                !
 ! D35   D(20,9,10,21)         179.9963         estimate D2E/DX2                !
 ! D36   D(20,9,10,22)          -0.0009         estimate D2E/DX2                !
 --------------------------------------------------------------------------------
 Trust Radius=3.00D-01 FncErr=1.00D-07 GrdErr=1.00D-06 EigMax=2.50D+02 EigMin=1.00D-04
 Number of steps in this run=     97 maximum allowed number of steps=    132.
 GradGradGradGradGradGradGradGradGradGradGradGradGradGradGradGradGradGrad

                          Input orientation:                          
 ---------------------------------------------------------------------
 Center     Atomic      Atomic             Coordinates (Angstroms)
 Number     Number       Type             X           Y           Z
 ---------------------------------------------------------------------
      1          6           0       -2.282347    1.188560    0.014489
      2          6           0       -1.057667    1.718440   -0.026202
      3          6           0        0.145977    0.863022    0.016575
      4          6           0        1.373195    1.398444   -0.024868
      5          6           0        2.577020    0.542386    0.017679
      6          6           0        3.804703    1.076780   -0.024451
      7          6           0        5.007778    0.219610    0.017804
      8          6           0        6.235846    0.752888   -0.025007
      9          6           0        7.437610   -0.105294    0.017053
     10          6           0        8.663590    0.421326   -0.025735
     11          1           0       -3.153859    1.834378   -0.018132
     12          1           0       -2.428037    0.114309    0.080160
     13          1           0       -0.953338    2.798154   -0.091965
     14          1           0        0.028801   -0.216341    0.082525
     15          1           0        1.489761    2.477856   -0.090940
     16          1           0        2.459792   -0.536925    0.083970
     17          1           0        3.922337    2.156041   -0.090898
     18          1           0        4.889794   -0.859611    0.084472
     19          1           0        6.355051    1.831971   -0.091800
     20          1           0        7.330707   -1.184706    0.083876
     21          1           0        8.812064    1.495093   -0.092633
     22          1           0        9.533369   -0.226880    0.006305
 ---------------------------------------------------------------------
                    Distance matrix (angstroms):
                    1          2          3          4          5
     1  C    0.000000
     2  C    1.335017   0.000000
     3  C    2.450049   1.477270   0.000000
     4  C    3.661774   2.451833   1.339574   0.000000
     5  C    4.902143   3.820468   2.452097   1.477782   0.000000
     6  C    6.088201   4.904525   3.665195   2.452692   1.339611
     7  C    7.354237   6.248044   4.904191   3.821213   2.452095
     8  C    8.529419   7.357148   6.091007   4.905316   3.665125
     9  C    9.805694   8.688936   7.355648   6.248209   4.903553
    10  C   10.972867   9.807412   8.529163   7.355584   6.087929
    11  H    1.085208   2.099411   3.440008   4.547999   5.874819
    12  H    1.086073   2.112454   2.681448   4.013651   5.023719
    13  H    2.090070   1.086735   2.228230   2.715961   4.190935
    14  H    2.705510   2.221624   1.087706   2.103915   2.659566
    15  H    3.987756   2.659002   2.103569   1.087697   2.222606
    16  H    5.046782   4.179871   2.705205   2.222204   1.087680
    17  H    6.280544   4.999612   3.993037   2.660158   2.103699
    18  H    7.459189   6.483122   5.047363   4.180578   2.705361
    19  H    8.661981   7.413877   6.285157   5.001131   3.993561
    20  H    9.901920   8.877228   7.471149   6.494339   5.058139
    21  H   11.099162   9.872481   8.689793   7.439805   6.308375
    22  H   11.900197  10.768257   9.450456   8.320522   6.998763
                    6          7          8          9         10
     6  C    0.000000
     7  C    1.477808   0.000000
     8  C    2.452624   1.339541   0.000000
     9  C    3.820607   2.451458   1.477323   0.000000
    10  C    4.902898   3.661631   2.450280   1.334985   0.000000
    11  H    6.999684   8.319921   9.451784  10.767673  11.901633
    12  H    6.307483   7.436822   8.688021   9.868293  11.096381
    13  H    5.060300   6.495833   7.474755   8.879747   9.906513
    14  H    3.992623   4.998445   6.283182   7.409931   8.658979
    15  H    2.706731   4.181860   5.050267   6.485464   7.463069
    16  H    2.103470   2.658751   3.991751   4.996945   6.278327
    17  H    1.087684   2.222558   2.706567   4.181200   5.049055
    18  H    2.222363   1.087696   2.103330   2.657990   3.986789
    19  H    2.660662   2.104012   1.087700   2.221887   2.706223
    20  H    4.190317   2.715229   2.228194   1.086749   2.089960
    21  H    5.025266   4.013931   2.681854   2.112438   1.086046
    22  H    5.875209   4.547577   3.440142   2.099310   1.085224
                   11         12         13         14         15
    11  H    0.000000
    12  H    1.869523   0.000000
    13  H    2.403458   3.067147   0.000000
    14  H    3.787467   2.478990   3.175252   0.000000
    15  H    4.688557   4.578730   2.464005   3.069722   0.000000
    16  H    6.094799   4.931023   4.775265   2.452038   3.171822
    17  H    7.083877   6.672719   4.917775   4.562663   2.453771
    18  H    8.483422   7.382356   6.895836   4.903371   4.767565
    19  H    9.509195   8.951121   7.371977   6.651872   4.907974
    20  H   10.911067   9.844823   9.193448   7.365837   6.896490
    21  H   11.970963  11.325912   9.851956   8.950161   7.387960
    22  H   12.853603  11.966498  10.914737   9.504879   8.486736
                   16         17         18         19         20
    16  H    0.000000
    17  H    3.069476   0.000000
    18  H    2.451333   3.171889   0.000000
    19  H    4.562412   2.454204   3.069636   0.000000
    20  H    4.913800   4.775785   2.462467   3.175392   0.000000
    21  H    6.671705   4.934195   4.578231   2.480000   3.067067
    22  H    7.080794   6.096838   4.687136   3.788166   2.403158
                   21         22
    21  H    0.000000
    22  H    1.869562   0.000000
 Stoichiometry    C10H12
 Framework group  C1[X(C10H12)]
 Deg. of freedom    60
 Full point group                 C1      NOp   1
 Largest Abelian subgroup         C1      NOp   1
 Largest concise Abelian subgroup C1      NOp   1
                         Standard orientation:                         
 ---------------------------------------------------------------------
 Center     Atomic      Atomic             Coordinates (Angstroms)
 Number     Number       Type             X           Y           Z
 ---------------------------------------------------------------------
      1          6           0        5.480871   -0.241621    0.001454
      2          6           0        4.324044    0.424729    0.000317
      3          6           0        3.031304   -0.290220   -0.000135
      4          6           0        1.872584    0.381959   -0.000876
      5          6           0        0.579591   -0.333589   -0.001062
      6          6           0       -0.579708    0.337665   -0.001059
      7          6           0       -1.872082   -0.379053   -0.000880
      8          6           0       -3.031891    0.291179   -0.000133
      9          6           0       -4.323077   -0.426679    0.000313
     10          6           0       -5.481566    0.236713    0.001456
     11          1           0        6.419886    0.302369    0.001825
     12          1           0        5.504019   -1.327447    0.002065
     13          1           0        4.342609    1.511305   -0.000206
     14          1           0        3.025544   -1.377910    0.000281
     15          1           0        1.878957    1.469637   -0.001170
     16          1           0        0.573889   -1.421254   -0.000988
     17          1           0       -0.574415    1.425336   -0.000977
     18          1           0       -1.877022   -1.466738   -0.001182
     19          1           0       -3.028178    1.378873    0.000293
     20          1           0       -4.339049   -1.513311   -0.000220
     21          1           0       -5.507536    1.322449    0.002078
     22          1           0       -6.419131   -0.309807    0.001823
 ---------------------------------------------------------------------
 Rotational constants (GHZ):          14.6393976           0.2988906           0.2929103
 Standard basis: 6-31G(d,p) (6D, 7F)
 There are   210 symmetry adapted cartesian basis functions of A   symmetry.
 There are   210 symmetry adapted basis functions of A   symmetry.
   210 basis functions,   364 primitive gaussians,   210 cartesian basis functions
    36 alpha electrons       36 beta electrons
       nuclear repulsion energy       412.3473489418 Hartrees.
 NAtoms=   22 NActive=   22 NUniq=   22 SFac= 1.00D+00 NAtFMM=   60 NAOKFM=F Big=F
 Integral buffers will be    131072 words long.
 Raffenetti 2 integral format.
 Two-electron integral symmetry is turned on.
 One-electron integrals computed using PRISM.
 NBasis=   210 RedAO= T EigKep=  1.53D-03  NBF=   210
 NBsUse=   210 1.00D-06 EigRej= -1.00D+00 NBFU=   210
 ExpMin= 1.61D-01 ExpMax= 3.05D+03 ExpMxC= 4.57D+02 IAcc=3 IRadAn=         5 AccDes= 0.00D+00
 Harris functional with IExCor=  402 and IRadAn=       5 diagonalized for initial guess.
 HarFok:  IExCor=  402 AccDes= 0.00D+00 IRadAn=         5 IDoV= 1 UseB2=F ITyADJ=14
 ICtDFT=  3500011 ScaDFX=  1.000000  1.000000  1.000000  1.000000
 FoFCou: FMM=F IPFlag=           0 FMFlag=      100000 FMFlg1=           0
         NFxFlg=           0 DoJE=T BraDBF=F KetDBF=T FulRan=T
         wScrn=  0.000000 ICntrl=       500 IOpCl=  0 I1Cent=   200000004 NGrid=           0
         NMat0=    1 NMatS0=      1 NMatT0=    0 NMatD0=    1 NMtDS0=    0 NMtDT0=    0
 Petite list used in FoFCou.
 Requested convergence on RMS density matrix=1.00D-08 within 128 cycles.
 Requested convergence on MAX density matrix=1.00D-06.
 Requested convergence on             energy=1.00D-06.
 No special actions if energy rises.
 Integral accuracy reduced to 1.0D-05 until final iterations.
 Initial convergence to 1.0D-05 achieved.  Increase integral accuracy.
 SCF Done:  E(RB3LYP) =  -388.223499960     A.U. after   13 cycles
            NFock= 13  Conv=0.47D-08     -V/T= 2.0100

 **********************************************************************

            Population analysis using the SCF Density.

 **********************************************************************

 Orbital symmetries:
       Occupied  (A) (A) (A) (A) (A) (A) (A) (A) (A) (A) (A) (A)
                 (A) (A) (A) (A) (A) (A) (A) (A) (A) (A) (A) (A)
                 (A) (A) (A) (A) (A) (A) (A) (A) (A) (A) (A) (A)
       Virtual   (A) (A) (A) (A) (A) (A) (A) (A) (A) (A) (A) (A)
                 (A) (A) (A) (A) (A) (A) (A) (A) (A) (A) (A) (A)
                 (A) (A) (A) (A) (A) (A) (A) (A) (A) (A) (A) (A)
                 (A) (A) (A) (A) (A) (A) (A) (A) (A) (A) (A) (A)
                 (A) (A) (A) (A) (A) (A) (A) (A) (A) (A) (A) (A)
                 (A) (A) (A) (A) (A) (A) (A) (A) (A) (A) (A) (A)
                 (A) (A) (A) (A) (A) (A) (A) (A) (A) (A) (A) (A)
                 (A) (A) (A) (A) (A) (A) (A) (A) (A) (A) (A) (A)
                 (A) (A) (A) (A) (A) (A) (A) (A) (A) (A) (A) (A)
                 (A) (A) (A) (A) (A) (A) (A) (A) (A) (A) (A) (A)
                 (A) (A) (A) (A) (A) (A) (A) (A) (A) (A) (A) (A)
                 (A) (A) (A) (A) (A) (A) (A) (A) (A) (A) (A) (A)
                 (A) (A) (A) (A) (A) (A) (A) (A) (A) (A) (A) (A)
                 (A) (A) (A) (A) (A) (A) (A) (A) (A) (A) (A) (A)
                 (A) (A) (A) (A) (A) (A)
 The electronic state is 1-A.
 Alpha  occ. eigenvalues --  -10.19175 -10.19172 -10.19151 -10.19132 -10.19119
 Alpha  occ. eigenvalues --  -10.19055 -10.18989 -10.18986 -10.17962 -10.17957
 Alpha  occ. eigenvalues --   -0.82456  -0.80702  -0.77954  -0.74385  -0.70601
 Alpha  occ. eigenvalues --   -0.62104  -0.57541  -0.56648  -0.55268  -0.54416
 Alpha  occ. eigenvalues --   -0.47864  -0.47692  -0.45055  -0.43617  -0.40726
 Alpha  occ. eigenvalues --   -0.39558  -0.38127  -0.37578  -0.36679  -0.35316
 Alpha  occ. eigenvalues --   -0.34678  -0.33567  -0.32467  -0.28949  -0.24308
 Alpha  occ. eigenvalues --   -0.19223
 Alpha virt. eigenvalues --   -0.05446   0.00206   0.05498   0.08819   0.08908
 Alpha virt. eigenvalues --    0.09861   0.11160   0.12551   0.12654   0.14094
 Alpha virt. eigenvalues --    0.14786   0.14965   0.15948   0.18093   0.19397
 Alpha virt. eigenvalues --    0.20287   0.20426   0.28162   0.31158   0.32038
 Alpha virt. eigenvalues --    0.34838   0.35897   0.37136   0.38244   0.40908
 Alpha virt. eigenvalues --    0.41911   0.47723   0.49312   0.51972   0.53314
 Alpha virt. eigenvalues --    0.55630   0.56547   0.57178   0.57999   0.58978
 Alpha virt. eigenvalues --    0.59314   0.60150   0.61142   0.62216   0.62880
 Alpha virt. eigenvalues --    0.64473   0.65481   0.66235   0.68180   0.68987
 Alpha virt. eigenvalues --    0.70062   0.73511   0.73719   0.79171   0.81307
 Alpha virt. eigenvalues --    0.83263   0.83816   0.84881   0.85500   0.85986
 Alpha virt. eigenvalues --    0.87078   0.87800   0.88675   0.91300   0.91891
 Alpha virt. eigenvalues --    0.93248   0.94123   0.97158   1.04075   1.04296
 Alpha virt. eigenvalues --    1.05317   1.06927   1.08565   1.10665   1.12548
 Alpha virt. eigenvalues --    1.20508   1.21143   1.28243   1.30096   1.30323
 Alpha virt. eigenvalues --    1.31640   1.31955   1.32417   1.33793   1.34316
 Alpha virt. eigenvalues --    1.36571   1.38607   1.41090   1.44069   1.47398
 Alpha virt. eigenvalues --    1.47429   1.50396   1.51338   1.51876   1.76267
 Alpha virt. eigenvalues --    1.76472   1.77118   1.77439   1.84641   1.86126
 Alpha virt. eigenvalues --    1.86306   1.91598   1.92658   1.93299   1.94560
 Alpha virt. eigenvalues --    1.96346   1.98267   1.98401   2.00007   2.03719
 Alpha virt. eigenvalues --    2.04935   2.07425   2.11565   2.12084   2.14876
 Alpha virt. eigenvalues --    2.17238   2.19754   2.19777   2.22441   2.23392
 Alpha virt. eigenvalues --    2.24409   2.29378   2.34644   2.34813   2.41354
 Alpha virt. eigenvalues --    2.41916   2.47107   2.47307   2.47710   2.48472
 Alpha virt. eigenvalues --    2.51056   2.51308   2.52682   2.54044   2.54710
 Alpha virt. eigenvalues --    2.55144   2.59845   2.61421   2.64003   2.66259
 Alpha virt. eigenvalues --    2.66378   2.67059   2.67100   2.70156   2.70556
 Alpha virt. eigenvalues --    2.71365   2.74142   2.79087   2.83340   2.84856
 Alpha virt. eigenvalues --    2.89385   2.90885   2.91926   2.96047   2.96886
 Alpha virt. eigenvalues --    2.99420   2.99901   3.27909   3.28092   3.35798
 Alpha virt. eigenvalues --    3.37780   3.40700   3.44548   3.50809   3.56574
 Alpha virt. eigenvalues --    3.61200   3.65294   3.69930   3.71685   4.13670
 Alpha virt. eigenvalues --    4.14017   4.15006   4.17564   4.23721   4.29354
 Alpha virt. eigenvalues --    4.40270   4.52778   4.64732   4.73256
          Condensed to atoms (all electrons):
               1          2          3          4          5          6
     1  C    4.965100   0.618874  -0.031390   0.002700  -0.000277   0.000005
     2  C    0.618874   4.740200   0.420630  -0.020008   0.004046  -0.000269
     3  C   -0.031390   0.420630   4.860939   0.578222  -0.018193   0.002488
     4  C    0.002700  -0.020008   0.578222   4.869505   0.391418  -0.016418
     5  C   -0.000277   0.004046  -0.018193   0.391418   4.887161   0.563441
     6  C    0.000005  -0.000269   0.002488  -0.016418   0.563441   4.887392
     7  C   -0.000000   0.000002  -0.000255   0.003625  -0.016315   0.391411
     8  C   -0.000000  -0.000000   0.000004  -0.000256   0.002486  -0.018281
     9  C    0.000000   0.000000  -0.000000   0.000002  -0.000268   0.004049
    10  C    0.000000   0.000000  -0.000000  -0.000000   0.000005  -0.000277
    11  H    0.369522  -0.020440   0.004033  -0.000224   0.000003  -0.000000
    12  H    0.382775  -0.035929  -0.012735   0.000562  -0.000000  -0.000000
    13  H   -0.050952   0.381998  -0.047460  -0.005749   0.000268  -0.000005
    14  H   -0.005164  -0.046688   0.379543  -0.051054  -0.009559   0.000550
    15  H    0.000486  -0.009044  -0.053531   0.381424  -0.047996  -0.005238
    16  H   -0.000003   0.000239  -0.005229  -0.048038   0.381229  -0.052874
    17  H    0.000000  -0.000004   0.000532  -0.009197  -0.052832   0.381197
    18  H    0.000000  -0.000000  -0.000004   0.000251  -0.005247  -0.048037
    19  H    0.000000   0.000000  -0.000000  -0.000004   0.000548  -0.009545
    20  H   -0.000000  -0.000000   0.000000  -0.000000  -0.000005   0.000269
    21  H    0.000000  -0.000000   0.000000   0.000000  -0.000000  -0.000000
    22  H   -0.000000   0.000000  -0.000000   0.000000  -0.000000   0.000003
               7          8          9         10         11         12
     1  C   -0.000000  -0.000000   0.000000   0.000000   0.369522   0.382775
     2  C    0.000002  -0.000000   0.000000   0.000000  -0.020440  -0.035929
     3  C   -0.000255   0.000004  -0.000000  -0.000000   0.004033  -0.012735
     4  C    0.003625  -0.000256   0.000002  -0.000000  -0.000224   0.000562
     5  C   -0.016315   0.002486  -0.000268   0.000005   0.000003  -0.000000
     6  C    0.391411  -0.018281   0.004049  -0.000277  -0.000000  -0.000000
     7  C    4.869339   0.578229  -0.019936   0.002691   0.000000   0.000000
     8  C    0.578229   4.861085   0.420630  -0.031422  -0.000000   0.000000
     9  C   -0.019936   0.420630   4.740110   0.618888   0.000000  -0.000000
    10  C    0.002691  -0.031422   0.618888   4.965165  -0.000000   0.000000
    11  H    0.000000  -0.000000   0.000000  -0.000000   0.601891  -0.042362
    12  H    0.000000   0.000000  -0.000000   0.000000  -0.042362   0.601375
    13  H   -0.000000   0.000000  -0.000000  -0.000000  -0.008089   0.005976
    14  H   -0.000004  -0.000000   0.000000   0.000000   0.000026   0.004587
    15  H    0.000250  -0.000004  -0.000000   0.000000  -0.000008   0.000014
    16  H   -0.009219   0.000534  -0.000004   0.000000   0.000000   0.000001
    17  H   -0.047993  -0.005218   0.000237  -0.000003  -0.000000  -0.000000
    18  H    0.381449  -0.053563  -0.009064   0.000488   0.000000  -0.000000
    19  H   -0.051027   0.379522  -0.046665  -0.005153  -0.000000   0.000000
    20  H   -0.005753  -0.047476   0.382002  -0.050958   0.000000   0.000000
    21  H    0.000562  -0.012729  -0.035921   0.382774  -0.000000  -0.000000
    22  H   -0.000224   0.004036  -0.020430   0.369516   0.000000  -0.000000
              13         14         15         16         17         18
     1  C   -0.050952  -0.005164   0.000486  -0.000003   0.000000   0.000000
     2  C    0.381998  -0.046688  -0.009044   0.000239  -0.000004  -0.000000
     3  C   -0.047460   0.379543  -0.053531  -0.005229   0.000532  -0.000004
     4  C   -0.005749  -0.051054   0.381424  -0.048038  -0.009197   0.000251
     5  C    0.000268  -0.009559  -0.047996   0.381229  -0.052832  -0.005247
     6  C   -0.000005   0.000550  -0.005238  -0.052874   0.381197  -0.048037
     7  C   -0.000000  -0.000004   0.000250  -0.009219  -0.047993   0.381449
     8  C    0.000000  -0.000000  -0.000004   0.000534  -0.005218  -0.053563
     9  C   -0.000000   0.000000  -0.000000  -0.000004   0.000237  -0.009064
    10  C   -0.000000   0.000000   0.000000   0.000000  -0.000003   0.000488
    11  H   -0.008089   0.000026  -0.000008   0.000000  -0.000000   0.000000
    12  H    0.005976   0.004587   0.000014   0.000001  -0.000000  -0.000000
    13  H    0.631496   0.004337   0.004180   0.000005   0.000001  -0.000000
    14  H    0.004337   0.631422   0.006053   0.004057   0.000014   0.000001
    15  H    0.004180   0.006053   0.633715   0.004267   0.004054   0.000005
    16  H    0.000005   0.004057   0.004267   0.633908   0.006053   0.004066
    17  H    0.000001   0.000014   0.004054   0.006053   0.633825   0.004266
    18  H   -0.000000   0.000001   0.000005   0.004066   0.004266   0.633802
    19  H   -0.000000  -0.000000   0.000001   0.000014   0.004046   0.006055
    20  H    0.000000  -0.000000  -0.000000   0.000001   0.000005   0.004189
    21  H    0.000000   0.000000  -0.000000  -0.000000   0.000001   0.000014
    22  H    0.000000  -0.000000   0.000000  -0.000000   0.000000  -0.000008
              19         20         21         22
     1  C    0.000000  -0.000000   0.000000  -0.000000
     2  C    0.000000  -0.000000  -0.000000   0.000000
     3  C   -0.000000   0.000000   0.000000  -0.000000
     4  C   -0.000004  -0.000000   0.000000   0.000000
     5  C    0.000548  -0.000005  -0.000000  -0.000000
     6  C   -0.009545   0.000269  -0.000000   0.000003
     7  C   -0.051027  -0.005753   0.000562  -0.000224
     8  C    0.379522  -0.047476  -0.012729   0.004036
     9  C   -0.046665   0.382002  -0.035921  -0.020430
    10  C   -0.005153  -0.050958   0.382774   0.369516
    11  H   -0.000000   0.000000  -0.000000   0.000000
    12  H    0.000000   0.000000  -0.000000  -0.000000
    13  H   -0.000000   0.000000   0.000000   0.000000
    14  H   -0.000000  -0.000000   0.000000  -0.000000
    15  H    0.000001  -0.000000  -0.000000   0.000000
    16  H    0.000014   0.000001  -0.000000  -0.000000
    17  H    0.004046   0.000005   0.000001   0.000000
    18  H    0.006055   0.004189   0.000014  -0.000008
    19  H    0.631389   0.004335   0.004579   0.000025
    20  H    0.004335   0.631543   0.005977  -0.008099
    21  H    0.004579   0.005977   0.601390  -0.042363
    22  H    0.000025  -0.008099  -0.042363   0.601920
 Mulliken charges:
               1
     1  C   -0.251676
     2  C   -0.033608
     3  C   -0.077594
     4  C   -0.076763
     5  C   -0.079913
     6  C   -0.079862
     7  C   -0.076832
     8  C   -0.077579
     9  C   -0.033631
    10  C   -0.251713
    11  H    0.095648
    12  H    0.095735
    13  H    0.083996
    14  H    0.081880
    15  H    0.081373
    16  H    0.080992
    17  H    0.081016
    18  H    0.081338
    19  H    0.081881
    20  H    0.083970
    21  H    0.095716
    22  H    0.095625
 Sum of Mulliken charges =  -0.00000
 Mulliken charges with hydrogens summed into heavy atoms:
               1
     1  C   -0.060293
     2  C    0.050388
     3  C    0.004286
     4  C    0.004610
     5  C    0.001079
     6  C    0.001154
     7  C    0.004507
     8  C    0.004302
     9  C    0.050339
    10  C   -0.060372
 Electronic spatial extent (au):  <R**2>=           3615.2593
 Charge=             -0.0000 electrons
 Dipole moment (field-independent basis, Debye):
    X=              0.0032    Y=              0.0006    Z=              0.0004  Tot=              0.0033
 Quadrupole moment (field-independent basis, Debye-Ang):
   XX=            -57.6767   YY=            -53.4282   ZZ=            -66.5009
   XY=              0.6582   XZ=             -0.0000   YZ=              0.0001
 Traceless Quadrupole moment (field-independent basis, Debye-Ang):
   XX=              1.5252   YY=              5.7738   ZZ=             -7.2990
   XY=              0.6582   XZ=             -0.0000   YZ=              0.0001
 Octapole moment (field-independent basis, Debye-Ang**2):
  XXX=              0.1040  YYY=              0.0070  ZZZ=             -0.0010  XYY=             -0.0042
  XXY=              0.0164  XXZ=              0.0409  XZZ=              0.0026  YZZ=              0.0009
  YYZ=             -0.0001  XYZ=             -0.0173
 Hexadecapole moment (field-independent basis, Debye-Ang**3):
 XXXX=          -4529.6637 YYYY=           -168.3643 ZZZZ=            -68.9215 XXXY=             38.0371
 XXXZ=             -0.0000 YYYX=             -0.5212 YYYZ=              0.0001 ZZZX=              0.0000
 ZZZY=              0.0000 XXYY=           -750.7054 XXZZ=           -901.9381 YYZZ=            -44.5121
 XXYZ=              0.0006 YYXZ=              0.0000 ZZXY=              0.2266
 N-N= 4.123473489418D+02 E-N=-1.722457610198D+03  KE= 3.843707304747D+02
 Calling FoFJK, ICntrl=      2127 FMM=F ISym2X=0 I1Cent= 0 IOpClX= 0 NMat=1 NMatS=1 NMatT=0.
 ***** Axes restored to original set *****
 -------------------------------------------------------------------
 Center     Atomic                   Forces (Hartrees/Bohr)
 Number     Number              X              Y              Z
 -------------------------------------------------------------------
      1        6          -0.008152391    0.004249924   -0.000196941
      2        6           0.010060284   -0.022598653    0.001288218
      3        6          -0.020269157    0.024211766   -0.001310171
      4        6           0.023403533   -0.026103415    0.001400495
      5        6          -0.024811666    0.025625217   -0.001357811
      6        6           0.024789545   -0.025637281    0.001357221
      7        6          -0.023393014    0.026131678   -0.001395727
      8        6           0.020230865   -0.024251234    0.001307266
      9        6          -0.010025851    0.022623225   -0.001294474
     10        6           0.008160065   -0.004273859    0.000190586
     11        1          -0.002801924   -0.003473569    0.000229520
     12        1          -0.002386534    0.000524124   -0.000012561
     13        1           0.005366172    0.000109561   -0.000044678
     14        1          -0.003396771    0.000619722   -0.000010015
     15        1           0.003184970   -0.000485437    0.000006628
     16        1          -0.003188016    0.000512554   -0.000004005
     17        1           0.003189685   -0.000522765    0.000008225
     18        1          -0.003190507    0.000484506   -0.000001649
     19        1           0.003404042   -0.000626850    0.000011669
     20        1          -0.005373522   -0.000087921    0.000052411
     21        1           0.002390702   -0.000513160    0.000012464
     22        1           0.002809491    0.003481866   -0.000236669
 -------------------------------------------------------------------
 Cartesian Forces:  Max     0.026131678 RMS     0.011402440

 GradGradGradGradGradGradGradGradGradGradGradGradGradGradGradGradGradGrad
 Berny optimization.
 FormGI is forming the generalized inverse of G from B-inverse, IUseBI=4.
 Internal  Forces:  Max     0.019797150 RMS     0.007179721
 Search for a local minimum.
 Step number   1 out of a maximum of   97
 All quantities printed in internal units (Hartrees-Bohrs-Radians)
 Mixed Optimization -- RFO/linear search
 Second derivative matrix not updated -- first step.
 ITU=  0
     Eigenvalues ---    0.01060   0.01060   0.01066   0.01067   0.01978
     Eigenvalues ---    0.01978   0.01978   0.01978   0.01982   0.01982
     Eigenvalues ---    0.01998   0.01999   0.02888   0.02888   0.02889
     Eigenvalues ---    0.02948   0.02948   0.02949   0.02949   0.16000
     Eigenvalues ---    0.16000   0.16000   0.16000   0.16000   0.16000
     Eigenvalues ---    0.16000   0.16000   0.16000   0.16000   0.16000
     Eigenvalues ---    0.16000   0.22000   0.22000   0.22000   0.22000
     Eigenvalues ---    0.22000   0.22000   0.22000   0.22000   0.34822
     Eigenvalues ---    0.34825   0.34878   0.34884   0.35079   0.35080
     Eigenvalues ---    0.35080   0.35080   0.35082   0.35082   0.35191
     Eigenvalues ---    0.35193   0.35270   0.35274   0.35370   0.35372
     Eigenvalues ---    0.57292   0.57301   0.57308   0.58336   0.58344
 RFO step:  Lambda=-1.46667937D-02 EMin= 1.05950315D-02
 Linear search not attempted -- first point.
 Iteration  1 RMS(Cart)=  0.05598898 RMS(Int)=  0.00047520
 Iteration  2 RMS(Cart)=  0.00123616 RMS(Int)=  0.00000058
 Iteration  3 RMS(Cart)=  0.00000013 RMS(Int)=  0.00000058
 Variable       Old X    -DE/DX   Delta X   Delta X   Delta X     New X
                                 (Linear)    (Quad)   (Total)
    R1        2.52282   0.01172   0.00000   0.01960   0.01960   2.54242
    R2        2.05075   0.00018   0.00000   0.00048   0.00048   2.05122
    R3        2.05238  -0.00020   0.00000  -0.00054  -0.00054   2.05184
    R4        2.79164  -0.01401   0.00000  -0.03853  -0.03853   2.75311
    R5        2.05363   0.00063   0.00000   0.00171   0.00171   2.05534
    R6        2.53143   0.01831   0.00000   0.03116   0.03116   2.56259
    R7        2.05547  -0.00025   0.00000  -0.00068  -0.00068   2.05478
    R8        2.79260  -0.01741   0.00000  -0.04798  -0.04798   2.74463
    R9        2.05545  -0.00014   0.00000  -0.00039  -0.00039   2.05506
   R10        2.53150   0.01980   0.00000   0.03369   0.03369   2.56519
   R11        2.05542  -0.00017   0.00000  -0.00045  -0.00045   2.05496
   R12        2.79265  -0.01742   0.00000  -0.04801  -0.04801   2.74464
   R13        2.05542  -0.00017   0.00000  -0.00048  -0.00048   2.05495
   R14        2.53137   0.01835   0.00000   0.03121   0.03121   2.56258
   R15        2.05545  -0.00013   0.00000  -0.00037  -0.00037   2.05508
   R16        2.79174  -0.01403   0.00000  -0.03860  -0.03860   2.75314
   R17        2.05546  -0.00025   0.00000  -0.00068  -0.00068   2.05477
   R18        2.52276   0.01176   0.00000   0.01965   0.01965   2.54241
   R19        2.05366   0.00062   0.00000   0.00169   0.00169   2.05535
   R20        2.05233  -0.00018   0.00000  -0.00049  -0.00049   2.05184
   R21        2.05078   0.00016   0.00000   0.00045   0.00045   2.05122
    A1        2.09392   0.00444   0.00000   0.02541   0.02541   2.11933
    A2        2.11471   0.00028   0.00000   0.00160   0.00160   2.11631
    A3        2.07456  -0.00472   0.00000  -0.02701  -0.02701   2.04754
    A4        2.11381   0.01181   0.00000   0.05032   0.05032   2.16413
    A5        2.07631  -0.00043   0.00000   0.00618   0.00618   2.08249
    A6        2.09306  -0.01138   0.00000  -0.05650  -0.05650   2.03656
    A7        2.11075   0.01212   0.00000   0.05165   0.05165   2.16240
    A8        2.08127  -0.00960   0.00000  -0.04609  -0.04609   2.03518
    A9        2.09116  -0.00252   0.00000  -0.00556  -0.00556   2.08560
   A10        2.11048   0.01267   0.00000   0.05399   0.05399   2.16446
   A11        2.09060  -0.00303   0.00000  -0.00805  -0.00805   2.08255
   A12        2.08211  -0.00964   0.00000  -0.04593  -0.04593   2.03618
   A13        2.11129   0.01237   0.00000   0.05272   0.05272   2.16401
   A14        2.08149  -0.00950   0.00000  -0.04533  -0.04533   2.03616
   A15        2.09040  -0.00287   0.00000  -0.00739  -0.00739   2.08302
   A16        2.11040   0.01250   0.00000   0.05328   0.05328   2.16367
   A17        2.09078  -0.00293   0.00000  -0.00765  -0.00765   2.08313
   A18        2.08201  -0.00957   0.00000  -0.04563  -0.04563   2.03638
   A19        2.11125   0.01256   0.00000   0.05352   0.05352   2.16477
   A20        2.08169  -0.00959   0.00000  -0.04573  -0.04573   2.03596
   A21        2.09025  -0.00297   0.00000  -0.00779  -0.00779   2.08246
   A22        2.11018   0.01221   0.00000   0.05201   0.05201   2.16219
   A23        2.09138  -0.00255   0.00000  -0.00569  -0.00569   2.08569
   A24        2.08162  -0.00965   0.00000  -0.04632  -0.04632   2.03530
   A25        2.11412   0.01177   0.00000   0.05016   0.05016   2.16428
   A26        2.09291  -0.01137   0.00000  -0.05646  -0.05646   2.03644
   A27        2.07616  -0.00040   0.00000   0.00631   0.00631   2.08246
   A28        2.11477   0.00028   0.00000   0.00158   0.00158   2.11635
   A29        2.09378   0.00445   0.00000   0.02550   0.02550   2.11927
   A30        2.07464  -0.00473   0.00000  -0.02707  -0.02707   2.04757
    D1       -3.14153  -0.00000   0.00000  -0.00003  -0.00003  -3.14157
    D2       -0.00002   0.00000   0.00000   0.00002   0.00002   0.00000
    D3        0.00001   0.00000   0.00000   0.00001   0.00001   0.00003
    D4        3.14153   0.00000   0.00000   0.00006   0.00006   3.14159
    D5        3.14125   0.00000   0.00000   0.00015   0.00014   3.14139
    D6       -0.00020   0.00000   0.00000   0.00004   0.00004  -0.00016
    D7       -0.00027   0.00000   0.00000   0.00009   0.00009  -0.00018
    D8        3.14147  -0.00000   0.00000  -0.00001  -0.00001   3.14146
    D9       -3.14138  -0.00000   0.00000  -0.00010  -0.00011  -3.14149
   D10        0.00002   0.00000   0.00000   0.00002   0.00002   0.00004
   D11        0.00006   0.00000   0.00000  -0.00000  -0.00000   0.00006
   D12        3.14146   0.00000   0.00000   0.00012   0.00013   3.14159
   D13        3.14095   0.00001   0.00000   0.00028   0.00028   3.14122
   D14       -0.00042   0.00000   0.00000   0.00012   0.00012  -0.00030
   D15       -0.00046   0.00000   0.00000   0.00015   0.00015  -0.00031
   D16        3.14136  -0.00000   0.00000  -0.00001  -0.00001   3.14135
   D17       -3.14130  -0.00000   0.00000  -0.00015  -0.00015  -3.14145
   D18        0.00006   0.00000   0.00000   0.00001   0.00001   0.00007
   D19        0.00006   0.00000   0.00000   0.00001   0.00001   0.00007
   D20        3.14143   0.00001   0.00000   0.00016   0.00016   3.14159
   D21        3.14094   0.00001   0.00000   0.00028   0.00028   3.14122
   D22       -0.00046   0.00000   0.00000   0.00015   0.00015  -0.00031
   D23       -0.00042   0.00000   0.00000   0.00012   0.00012  -0.00030
   D24        3.14136  -0.00000   0.00000  -0.00001  -0.00001   3.14135
   D25       -3.14138  -0.00000   0.00000  -0.00010  -0.00011  -3.14149
   D26        0.00006  -0.00000   0.00000  -0.00000  -0.00000   0.00006
   D27        0.00002   0.00000   0.00000   0.00002   0.00002   0.00004
   D28        3.14146   0.00000   0.00000   0.00012   0.00013   3.14159
   D29        3.14124   0.00000   0.00000   0.00015   0.00014   3.14139
   D30       -0.00027   0.00000   0.00000   0.00009   0.00009  -0.00018
   D31       -0.00020   0.00000   0.00000   0.00004   0.00004  -0.00016
   D32        3.14147  -0.00000   0.00000  -0.00001  -0.00001   3.14146
   D33        0.00001   0.00000   0.00000   0.00001   0.00001   0.00003
   D34       -3.14153  -0.00000   0.00000  -0.00003  -0.00003  -3.14157
   D35        3.14153   0.00000   0.00000   0.00006   0.00006   3.14159
   D36       -0.00002   0.00000   0.00000   0.00002   0.00002   0.00000
         Item               Value     Threshold  Converged?
 Maximum Force            0.019797     0.000450     NO 
 RMS     Force            0.007180     0.000300     NO 
 Maximum Displacement     0.200006     0.001800     NO 
 RMS     Displacement     0.055020     0.001200     NO 
 Predicted change in Energy=-7.739580D-03
 GradGradGradGradGradGradGradGradGradGradGradGradGradGradGradGradGradGrad

                          Input orientation:                          
 ---------------------------------------------------------------------
 Center     Atomic      Atomic             Coordinates (Angstroms)
 Number     Number       Type             X           Y           Z
 ---------------------------------------------------------------------
      1          6           0       -2.353091    1.196623    0.015151
      2          6           0       -1.102828    1.691974   -0.024152
      3          6           0        0.100187    0.871228    0.016288
      4          6           0        1.359498    1.372672   -0.023679
      5          6           0        2.560491    0.556912    0.016348
      6          6           0        3.820849    1.059410   -0.024107
      7          6           0        5.021573    0.243232    0.015781
      8          6           0        6.281194    0.743819   -0.024969
      9          6           0        7.483520   -0.077981    0.015121
     10          6           0        8.734263    0.416051   -0.025385
     11          1           0       -3.221091    1.847567   -0.017597
     12          1           0       -2.533875    0.128019    0.080994
     13          1           0       -0.958104    2.767919   -0.090168
     14          1           0       -0.045985   -0.204215    0.082414
     15          1           0        1.502399    2.448704   -0.089819
     16          1           0        2.417580   -0.519052    0.082718
     17          1           0        3.963881    2.135349   -0.090477
     18          1           0        4.878073   -0.832699    0.082388
     19          1           0        6.428146    1.819122   -0.091569
     20          1           0        7.337757   -1.153743    0.081869
     21          1           0        8.916144    1.484420   -0.091984
     22          1           0        9.601571   -0.235830    0.007109
 ---------------------------------------------------------------------
                    Distance matrix (angstroms):
                    1          2          3          4          5
     1  C    0.000000
     2  C    1.345390   0.000000
     3  C    2.474763   1.456882   0.000000
     4  C    3.716964   2.482943   1.356064   0.000000
     5  C    4.955050   3.835351   2.480301   1.452395   0.000000
     6  C    6.175590   4.964145   3.725637   2.481206   1.357440
     7  C    7.436035   6.293547   4.961292   3.832490   2.480991
     8  C    8.646243   7.444648   6.182458   4.961708   3.725624
     9  C    9.918848   8.766965   7.444100   6.293612   4.963800
    10  C   11.114871   9.919493   8.646167   7.436550   6.175520
    11  H    1.085461   2.123979   3.461975   4.605145   5.923988
    12  H    1.085786   2.122477   2.737669   4.088823   5.112797
    13  H    2.103819   1.087639   2.174568   2.705996   4.156971
    14  H    2.699927   2.173433   1.087345   2.114997   2.716136
    15  H    4.055063   2.713699   2.113265   1.087493   2.170186
    16  H    5.070247   4.158525   2.703258   2.170133   1.087440
    17  H    6.387214   5.086504   4.066637   2.714581   2.114800
    18  H    7.510819   6.492805   5.073060   4.153948   2.703066
    19  H    8.803920   7.532349   6.399469   5.088724   4.069837
    20  H    9.972021   8.908020   7.515799   6.491031   5.074732
    21  H   11.273418  10.021351   8.837920   7.557780   6.423888
    22  H   12.040180  10.876652   9.565666   8.397618   7.085572
                    6          7          8          9         10
     6  C    0.000000
     7  C    1.452403   0.000000
     8  C    2.480503   1.356058   0.000000
     9  C    3.835409   2.482814   1.456898   0.000000
    10  C    4.955356   3.716938   2.474870   1.345386   0.000000
    11  H    7.085912   8.397411   9.566176  10.876466  12.040755
    12  H    6.423477   7.556608   8.837187  10.019730  11.272321
    13  H    5.075604   6.491671   7.517224   8.909055   9.973839
    14  H    4.069460   5.087710   6.398710   7.530865   8.802790
    15  H    2.703639   4.154496   5.074220   6.493763   7.512369
    16  H    2.114739   2.714100   4.066196   5.085555   6.386438
    17  H    1.087432   2.170278   2.703809   4.159067   5.071170
    18  H    2.170056   1.087501   2.113216   2.713389   4.054774
    19  H    2.716562   2.115041   1.087339   2.173522   2.700216
    20  H    4.156672   2.705664   2.174507   1.087643   2.103803
    21  H    5.113440   4.088991   2.737872   2.122493   1.085785
    22  H    5.924134   4.604993   3.462029   2.123939   1.085461
                   11         12         13         14         15
    11  H    0.000000
    12  H    1.854409   0.000000
    13  H    2.444059   3.079192   0.000000
    14  H    3.781681   2.509976   3.113732   0.000000
    15  H    4.762136   4.658999   2.481124   3.076547   0.000000
    16  H    6.116008   4.993557   4.714797   2.483601   3.110450
    17  H    7.191103   6.802913   4.962467   4.645695   2.481347
    18  H    8.531722   7.473952   6.859678   4.964005   4.710885
    19  H    9.649562   9.121811   7.446939   6.785170   4.965818
    20  H   10.977569   9.954498   9.177708   7.444545   6.859920
    21  H   12.142894  11.531378   9.957316   9.121494   7.476192
    22  H   12.990836  12.141124  10.979012   9.647902   8.533035
                   16         17         18         19         20
    16  H    0.000000
    17  H    3.076831   0.000000
    18  H    2.480404   3.110457   0.000000
    19  H    4.645651   2.484472   3.076547   0.000000
    20  H    4.960945   4.714962   2.480547   3.113744   0.000000
    21  H    6.802629   4.994859   4.658912   2.510410   3.079194
    22  H    7.189969   6.116825   4.761654   3.781956   2.443974
                   21         22
    21  H    0.000000
    22  H    1.854424   0.000000
 Stoichiometry    C10H12
 Framework group  C1[X(C10H12)]
 Deg. of freedom    60
 Full point group                 C1      NOp   1
 Largest Abelian subgroup         C1      NOp   1
 Largest concise Abelian subgroup C1      NOp   1
                         Standard orientation:                         
 ---------------------------------------------------------------------
 Center     Atomic      Atomic             Coordinates (Angstroms)
 Number     Number       Type             X           Y           Z
 ---------------------------------------------------------------------
      1          6           0        5.552871   -0.222769    0.000791
      2          6           0        4.364581    0.408138    0.000153
      3          6           0        3.078695   -0.276698   -0.000057
      4          6           0        1.882080    0.361285   -0.000471
      5          6           0        0.598752   -0.318802   -0.000555
      6          6           0       -0.598788    0.320373   -0.000555
      7          6           0       -1.881895   -0.360149   -0.000472
      8          6           0       -3.078913    0.277066   -0.000056
      9          6           0       -4.364231   -0.408870    0.000153
     10          6           0       -5.553144    0.220853    0.000792
     11          1           0        6.487118    0.329868    0.000950
     12          1           0        5.615187   -1.306765    0.001170
     13          1           0        4.338913    1.495474   -0.000212
     14          1           0        3.105857   -1.363703    0.000180
     15          1           0        1.858234    1.448516   -0.000704
     16          1           0        0.622616   -1.405980   -0.000555
     17          1           0       -0.622775    1.407540   -0.000553
     18          1           0       -1.857443   -1.447375   -0.000707
     19          1           0       -3.106866    1.364045    0.000183
     20          1           0       -4.337509   -1.496185   -0.000215
     21          1           0       -5.616576    1.304783    0.001173
     22          1           0       -6.486806   -0.332772    0.000949
 ---------------------------------------------------------------------
 Rotational constants (GHZ):          15.4411763           0.2918168           0.2864041
 Standard basis: 6-31G(d,p) (6D, 7F)
 There are   210 symmetry adapted cartesian basis functions of A   symmetry.
 There are   210 symmetry adapted basis functions of A   symmetry.
   210 basis functions,   364 primitive gaussians,   210 cartesian basis functions
    36 alpha electrons       36 beta electrons
       nuclear repulsion energy       410.1677245583 Hartrees.
 NAtoms=   22 NActive=   22 NUniq=   22 SFac= 1.00D+00 NAtFMM=   60 NAOKFM=F Big=F
 Integral buffers will be    131072 words long.
 Raffenetti 2 integral format.
 Two-electron integral symmetry is turned on.
 One-electron integrals computed using PRISM.
 NBasis=   210 RedAO= T EigKep=  1.55D-03  NBF=   210
 NBsUse=   210 1.00D-06 EigRej= -1.00D+00 NBFU=   210
 Initial guess from the checkpoint file:  "checkpoint.chk"
 B after Tr=    -0.000000    0.000000   -0.000000
         Rot=    1.000000    0.000002   -0.000000   -0.000868 Ang=   0.10 deg.
 ExpMin= 1.61D-01 ExpMax= 3.05D+03 ExpMxC= 4.57D+02 IAcc=3 IRadAn=         5 AccDes= 0.00D+00
 Harris functional with IExCor=  402 and IRadAn=       5 diagonalized for initial guess.
 HarFok:  IExCor=  402 AccDes= 0.00D+00 IRadAn=         5 IDoV= 1 UseB2=F ITyADJ=14
 ICtDFT=  3500011 ScaDFX=  1.000000  1.000000  1.000000  1.000000
 FoFCou: FMM=F IPFlag=           0 FMFlag=      100000 FMFlg1=           0
         NFxFlg=           0 DoJE=T BraDBF=F KetDBF=T FulRan=T
         wScrn=  0.000000 ICntrl=       500 IOpCl=  0 I1Cent=   200000004 NGrid=           0
         NMat0=    1 NMatS0=      1 NMatT0=    0 NMatD0=    1 NMtDS0=    0 NMtDT0=    0
 Petite list used in FoFCou.
 Requested convergence on RMS density matrix=1.00D-08 within 128 cycles.
 Requested convergence on MAX density matrix=1.00D-06.
 Requested convergence on             energy=1.00D-06.
 No special actions if energy rises.
 Integral accuracy reduced to 1.0D-05 until final iterations.
 Initial convergence to 1.0D-05 achieved.  Increase integral accuracy.
 SCF Done:  E(RB3LYP) =  -388.231670282     A.U. after   11 cycles
            NFock= 11  Conv=0.84D-08     -V/T= 2.0103
 Calling FoFJK, ICntrl=      2127 FMM=F ISym2X=0 I1Cent= 0 IOpClX= 0 NMat=1 NMatS=1 NMatT=0.
 ***** Axes restored to original set *****
 -------------------------------------------------------------------
 Center     Atomic                   Forces (Hartrees/Bohr)
 Number     Number              X              Y              Z
 -------------------------------------------------------------------
      1        6           0.002293677    0.002740977   -0.000181044
      2        6           0.002200690   -0.006797991    0.000393876
      3        6          -0.004222562    0.007767677   -0.000435271
      4        6           0.006509654   -0.008690431    0.000476180
      5        6          -0.007198215    0.008376045   -0.000449123
      6        6           0.007192724   -0.008384249    0.000453043
      7        6          -0.006513430    0.008688714   -0.000474344
      8        6           0.004217692   -0.007774289    0.000440184
      9        6          -0.002201135    0.006800959   -0.000395769
     10        6          -0.002300046   -0.002736637    0.000187484
     11        1          -0.000002005   -0.000903092    0.000054682
     12        1          -0.000731738   -0.000471704    0.000033873
     13        1           0.000500140    0.001223719   -0.000078805
     14        1           0.000349482   -0.001671923    0.000097230
     15        1          -0.000413749    0.001689787   -0.000101356
     16        1           0.000455747   -0.001652434    0.000094156
     17        1          -0.000449920    0.001654379   -0.000099168
     18        1           0.000419007   -0.001688464    0.000096871
     19        1          -0.000345883    0.001673596   -0.000100109
     20        1          -0.000497653   -0.001222565    0.000077421
     21        1           0.000732128    0.000471160   -0.000034897
     22        1           0.000005397    0.000906765   -0.000055112
 -------------------------------------------------------------------
 Cartesian Forces:  Max     0.008690431 RMS     0.003459804

 GradGradGradGradGradGradGradGradGradGradGradGradGradGradGradGradGradGrad
 Berny optimization.
 Using GEDIIS/GDIIS optimizer.
 FormGI is forming the generalized inverse of G from B-inverse, IUseBI=4.
 Internal  Forces:  Max     0.008244561 RMS     0.001717607
 Search for a local minimum.
 Step number   2 out of a maximum of   97
 All quantities printed in internal units (Hartrees-Bohrs-Radians)
 Mixed Optimization -- RFO/linear search
 Update second derivatives using D2CorX and points    1    2
 DE= -8.17D-03 DEPred=-7.74D-03 R= 1.06D+00
 TightC=F SS=  1.41D+00  RLast= 2.35D-01 DXNew= 5.0454D-01 7.0604D-01
 Trust test= 1.06D+00 RLast= 2.35D-01 DXMaxT set to 5.05D-01
 ITU=  1  0
 Use linear search instead of GDIIS.
     Eigenvalues ---    0.01060   0.01060   0.01066   0.01067   0.01996
     Eigenvalues ---    0.01996   0.01996   0.01997   0.02002   0.02002
     Eigenvalues ---    0.02030   0.02030   0.02888   0.02888   0.02889
     Eigenvalues ---    0.02948   0.02948   0.02949   0.02949   0.15716
     Eigenvalues ---    0.16000   0.16000   0.16000   0.16000   0.16000
     Eigenvalues ---    0.16000   0.16000   0.16000   0.16000   0.16000
     Eigenvalues ---    0.16605   0.20923   0.22000   0.22000   0.22000
     Eigenvalues ---    0.22000   0.22000   0.22000   0.22042   0.31599
     Eigenvalues ---    0.34823   0.34863   0.34881   0.35079   0.35080
     Eigenvalues ---    0.35080   0.35081   0.35082   0.35172   0.35192
     Eigenvalues ---    0.35253   0.35272   0.35334   0.35371   0.35430
     Eigenvalues ---    0.57285   0.57304   0.57821   0.58340   0.60933
 RFO step:  Lambda=-7.24581501D-04 EMin= 1.05950308D-02
 Quartic linear search produced a step of  0.13278.
 Iteration  1 RMS(Cart)=  0.01181597 RMS(Int)=  0.00002486
 Iteration  2 RMS(Cart)=  0.00006125 RMS(Int)=  0.00000004
 Iteration  3 RMS(Cart)=  0.00000000 RMS(Int)=  0.00000004
 Variable       Old X    -DE/DX   Delta X   Delta X   Delta X     New X
                                 (Linear)    (Quad)   (Total)
    R1        2.54242  -0.00196   0.00260  -0.00546  -0.00286   2.53956
    R2        2.05122  -0.00054   0.00006  -0.00177  -0.00171   2.04951
    R3        2.05184   0.00059  -0.00007   0.00193   0.00186   2.05370
    R4        2.75311  -0.00590  -0.00512  -0.01574  -0.02086   2.73225
    R5        2.05534   0.00128   0.00023   0.00397   0.00420   2.05954
    R6        2.56259  -0.00106   0.00414  -0.00475  -0.00062   2.56197
    R7        2.05478   0.00161  -0.00009   0.00526   0.00517   2.05995
    R8        2.74463  -0.00824  -0.00637  -0.02257  -0.02894   2.71569
    R9        2.05506   0.00162  -0.00005   0.00527   0.00521   2.06028
   R10        2.56519  -0.00036   0.00447  -0.00358   0.00089   2.56608
   R11        2.05496   0.00158  -0.00006   0.00513   0.00507   2.06004
   R12        2.74464  -0.00824  -0.00637  -0.02258  -0.02895   2.71569
   R13        2.05495   0.00158  -0.00006   0.00514   0.00508   2.06003
   R14        2.56258  -0.00106   0.00414  -0.00475  -0.00061   2.56197
   R15        2.05508   0.00162  -0.00005   0.00526   0.00521   2.06028
   R16        2.75314  -0.00590  -0.00512  -0.01577  -0.02089   2.73225
   R17        2.05477   0.00161  -0.00009   0.00526   0.00517   2.05994
   R18        2.54241  -0.00195   0.00261  -0.00547  -0.00286   2.53956
   R19        2.05535   0.00128   0.00022   0.00397   0.00419   2.05954
   R20        2.05184   0.00059  -0.00007   0.00193   0.00186   2.05370
   R21        2.05122  -0.00054   0.00006  -0.00177  -0.00171   2.04951
    A1        2.11933   0.00055   0.00337   0.00153   0.00491   2.12424
    A2        2.11631   0.00038   0.00021   0.00256   0.00277   2.11908
    A3        2.04754  -0.00094  -0.00359  -0.00409  -0.00768   2.03987
    A4        2.16413   0.00130   0.00668   0.00213   0.00881   2.17294
    A5        2.08249  -0.00031   0.00082  -0.00156  -0.00074   2.08175
    A6        2.03656  -0.00099  -0.00750  -0.00057  -0.00807   2.02849
    A7        2.16240   0.00084   0.00686  -0.00031   0.00655   2.16896
    A8        2.03518   0.00016  -0.00612   0.00617   0.00005   2.03523
    A9        2.08560  -0.00101  -0.00074  -0.00586  -0.00660   2.07900
   A10        2.16446   0.00108   0.00717   0.00071   0.00788   2.17234
   A11        2.08255  -0.00119  -0.00107  -0.00669  -0.00776   2.07478
   A12        2.03618   0.00011  -0.00610   0.00598  -0.00012   2.03606
   A13        2.16401   0.00088   0.00700  -0.00020   0.00680   2.17081
   A14        2.03616   0.00025  -0.00602   0.00670   0.00069   2.03685
   A15        2.08302  -0.00113  -0.00098  -0.00650  -0.00748   2.07553
   A16        2.16367   0.00093   0.00707  -0.00003   0.00705   2.17072
   A17        2.08313  -0.00115  -0.00102  -0.00655  -0.00757   2.07556
   A18        2.03638   0.00022  -0.00606   0.00658   0.00052   2.03690
   A19        2.16477   0.00104   0.00711   0.00055   0.00766   2.17242
   A20        2.03596   0.00013  -0.00607   0.00611   0.00003   2.03599
   A21        2.08246  -0.00118  -0.00103  -0.00666  -0.00769   2.07477
   A22        2.16219   0.00087   0.00691  -0.00020   0.00670   2.16890
   A23        2.08569  -0.00102  -0.00076  -0.00590  -0.00666   2.07903
   A24        2.03530   0.00015  -0.00615   0.00610  -0.00005   2.03526
   A25        2.16428   0.00128   0.00666   0.00205   0.00871   2.17299
   A26        2.03644  -0.00098  -0.00750  -0.00050  -0.00800   2.02845
   A27        2.08246  -0.00030   0.00084  -0.00155  -0.00071   2.08175
   A28        2.11635   0.00038   0.00021   0.00253   0.00274   2.11909
   A29        2.11927   0.00056   0.00339   0.00157   0.00495   2.12422
   A30        2.04757  -0.00094  -0.00359  -0.00410  -0.00770   2.03987
    D1       -3.14157  -0.00000  -0.00000  -0.00001  -0.00002  -3.14158
    D2        0.00000   0.00000   0.00000   0.00000   0.00000   0.00001
    D3        0.00003  -0.00000   0.00000  -0.00002  -0.00001   0.00001
    D4        3.14159   0.00000   0.00001  -0.00000   0.00001  -3.14159
    D5        3.14139   0.00000   0.00002   0.00014   0.00016   3.14155
    D6       -0.00016   0.00000   0.00001   0.00011   0.00012  -0.00004
    D7       -0.00018   0.00000   0.00001   0.00013   0.00014  -0.00003
    D8        3.14146   0.00000  -0.00000   0.00010   0.00010   3.14156
    D9       -3.14149  -0.00000  -0.00001  -0.00006  -0.00007  -3.14156
   D10        0.00004  -0.00000   0.00000  -0.00002  -0.00001   0.00003
   D11        0.00006  -0.00000  -0.00000  -0.00003  -0.00003   0.00003
   D12        3.14159   0.00000   0.00002   0.00001   0.00003  -3.14156
   D13        3.14122   0.00000   0.00004   0.00029   0.00033   3.14155
   D14       -0.00030   0.00000   0.00002   0.00025   0.00026  -0.00004
   D15       -0.00031   0.00000   0.00002   0.00025   0.00027  -0.00004
   D16        3.14135   0.00000  -0.00000   0.00020   0.00020   3.14156
   D17       -3.14145  -0.00000  -0.00002  -0.00008  -0.00010  -3.14155
   D18        0.00007  -0.00000   0.00000  -0.00003  -0.00003   0.00004
   D19        0.00007  -0.00000   0.00000  -0.00003  -0.00003   0.00004
   D20        3.14159   0.00000   0.00002   0.00002   0.00004  -3.14155
   D21        3.14122   0.00000   0.00004   0.00029   0.00033   3.14155
   D22       -0.00031   0.00000   0.00002   0.00025   0.00027  -0.00004
   D23       -0.00030   0.00000   0.00002   0.00025   0.00026  -0.00004
   D24        3.14135   0.00000  -0.00000   0.00020   0.00020   3.14156
   D25       -3.14149  -0.00000  -0.00001  -0.00006  -0.00007  -3.14156
   D26        0.00006  -0.00000  -0.00000  -0.00003  -0.00003   0.00003
   D27        0.00004  -0.00000   0.00000  -0.00002  -0.00001   0.00003
   D28        3.14159   0.00000   0.00002   0.00001   0.00003  -3.14156
   D29        3.14139   0.00000   0.00002   0.00014   0.00016   3.14155
   D30       -0.00018   0.00000   0.00001   0.00013   0.00014  -0.00003
   D31       -0.00016   0.00000   0.00001   0.00011   0.00012  -0.00004
   D32        3.14146   0.00000  -0.00000   0.00010   0.00010   3.14156
   D33        0.00003  -0.00000   0.00000  -0.00002  -0.00001   0.00001
   D34       -3.14157  -0.00000  -0.00000  -0.00001  -0.00002  -3.14158
   D35        3.14159   0.00000   0.00001  -0.00000   0.00001  -3.14159
   D36        0.00000   0.00000   0.00000   0.00000   0.00000   0.00001
         Item               Value     Threshold  Converged?
 Maximum Force            0.008245     0.000450     NO 
 RMS     Force            0.001718     0.000300     NO 
 Maximum Displacement     0.044143     0.001800     NO 
 RMS     Displacement     0.011857     0.001200     NO 
 Predicted change in Energy=-4.749704D-04
 GradGradGradGradGradGradGradGradGradGradGradGradGradGradGradGradGradGrad

                          Input orientation:                          
 ---------------------------------------------------------------------
 Center     Atomic      Atomic             Coordinates (Angstroms)
 Number     Number       Type             X           Y           Z
 ---------------------------------------------------------------------
      1          6           0       -2.340275    1.198055    0.015577
      2          6           0       -1.087527    1.682913   -0.023661
      3          6           0        0.107087    0.869423    0.016255
      4          6           0        1.368925    1.363584   -0.023663
      5          6           0        2.559036    0.559040    0.015709
      6          6           0        3.822134    1.055928   -0.024427
      7          6           0        5.012174    0.251278    0.014907
      8          6           0        6.274092    0.745223   -0.025086
      9          6           0        7.468523   -0.068540    0.014730
     10          6           0        8.721398    0.415973   -0.024663
     11          1           0       -3.205579    1.851076   -0.017212
     12          1           0       -2.532674    0.130503    0.081807
     13          1           0       -0.934745    2.759960   -0.090150
     14          1           0       -0.038450   -0.208844    0.082794
     15          1           0        1.509931    2.442630   -0.090188
     16          1           0        2.418899   -0.519990    0.082262
     17          1           0        3.962301    2.134951   -0.090943
     18          1           0        4.871001   -0.827748    0.081466
     19          1           0        6.419841    1.823461   -0.091607
     20          1           0        7.315450   -1.145543    0.081269
     21          1           0        8.914095    1.483469   -0.090936
     22          1           0        9.586514   -0.237300    0.008038
 ---------------------------------------------------------------------
                    Distance matrix (angstroms):
                    1          2          3          4          5
     1  C    0.000000
     2  C    1.343877   0.000000
     3  C    2.469328   1.445843   0.000000
     4  C    3.713099   2.477121   1.355737   0.000000
     5  C    4.940809   3.816028   2.471516   1.437083   0.000000
     6  C    6.164177   4.949533   3.719948   2.472425   1.357912
     7  C    7.413157   6.265575   4.943884   3.809459   2.472368
     8  C    8.626357   7.421098   6.168394   4.943990   3.719942
     9  C    9.890236   8.733559   7.420951   6.265584   4.949436
    10  C   11.089359   9.890407   8.626334   7.413287   6.164154
    11  H    1.084557   2.124727   3.455216   4.600411   5.907726
    12  H    1.086771   2.123570   2.742013   4.093176   5.110139
    13  H    2.103864   1.089859   2.161218   2.694657   4.130588
    14  H    2.698570   2.165789   1.090078   2.112953   2.709443
    15  H    4.047746   2.707099   2.110517   1.090252   2.158645
    16  H    5.060223   4.142345   2.698018   2.159054   1.090125
    17  H    6.372722   5.070467   4.059030   2.706498   2.112824
    18  H    7.490709   6.466725   5.057620   4.132496   2.696792
    19  H    8.783066   7.508991   6.385349   5.072263   4.063999
    20  H    9.936287   8.866860   7.484973   6.455067   5.053056
    21  H   11.258493  10.003837   8.829039   7.546423   6.422828
    22  H   12.012852  10.845432   9.543817   8.372133   7.072458
                    6          7          8          9         10
     6  C    0.000000
     7  C    1.437082   0.000000
     8  C    2.471566   1.355735   0.000000
     9  C    3.816034   2.477081   1.445842   0.000000
    10  C    4.940884   3.713089   2.469355   1.343875   0.000000
    11  H    7.072557   8.372088   9.543958  10.845386  12.013008
    12  H    6.422715   7.546111   8.828841  10.003402  11.258195
    13  H    5.053309   6.455258   7.485367   8.867148   9.936783
    14  H    4.063896   5.071994   6.385144   7.508592   8.782760
    15  H    2.696952   4.132647   5.057930   6.466977   7.491120
    16  H    2.112810   2.706376   4.058916   5.070214   6.372516
    17  H    1.090121   2.159088   2.698159   4.142479   5.060463
    18  H    2.158604   1.090256   2.110511   2.707023   4.047674
    19  H    2.709558   2.112967   1.090076   2.165804   2.698642
    20  H    4.130485   2.694549   2.161188   1.089860   2.103864
    21  H    5.110312   4.093224   2.742073   2.123576   1.086771
    22  H    5.907756   4.600363   3.455227   2.124715   1.084556
                   11         12         13         14         15
    11  H    0.000000
    12  H    1.850129   0.000000
    13  H    2.447055   3.081719   0.000000
    14  H    3.779415   2.517203   3.105970   0.000000
    15  H    4.753031   4.660276   2.465185   3.075342   0.000000
    16  H    6.104638   4.994118   4.694115   2.476969   3.103720
    17  H    7.173878   6.799438   4.936769   4.639997   2.471595
    18  H    8.509817   7.465430   6.826989   4.948308   4.692721
    19  H    9.625747   9.112831   7.413970   6.772754   4.948796
    20  H   10.939903   9.930450   9.129515   7.413316   6.827037
    21  H   12.125472  11.527744   9.931217   9.112748   7.466032
    22  H   12.961466  12.124992  10.940297   9.625297   8.510163
                   16         17         18         19         20
    16  H    0.000000
    17  H    3.075842   0.000000
    18  H    2.471340   3.103715   0.000000
    19  H    4.639992   2.477202   3.075348   0.000000
    20  H    4.936348   4.694136   2.465020   3.105960   0.000000
    21  H    6.799369   4.994467   4.660264   2.517320   3.081724
    22  H    7.173572   6.104847   4.752903   3.779482   2.447039
                   21         22
    21  H    0.000000
    22  H    1.850132   0.000000
 Stoichiometry    C10H12
 Framework group  C1[X(C10H12)]
 Deg. of freedom    60
 Full point group                 C1      NOp   1
 Largest Abelian subgroup         C1      NOp   1
 Largest concise Abelian subgroup C1      NOp   1
                         Standard orientation:                         
 ---------------------------------------------------------------------
 Center     Atomic      Atomic             Coordinates (Angstroms)
 Number     Number       Type             X           Y           Z
 ---------------------------------------------------------------------
      1          6           0        5.540428   -0.216439    0.000124
      2          6           0        4.348129    0.403581    0.000036
      3          6           0        3.071813   -0.275742   -0.000023
      4          6           0        1.871493    0.354541   -0.000066
      5          6           0        0.600630   -0.316365   -0.000089
      6          6           0       -0.600644    0.316774   -0.000089
      7          6           0       -1.871448   -0.354241   -0.000066
      8          6           0       -3.071870    0.275840   -0.000023
      9          6           0       -4.348034   -0.403768    0.000036
     10          6           0       -5.540498    0.215933    0.000124
     11          1           0        6.471878    0.339137    0.000175
     12          1           0        5.615081   -1.300643    0.000145
     13          1           0        4.313891    1.492903    0.000011
     14          1           0        3.098714   -1.365488   -0.000032
     15          1           0        1.849180    1.444564   -0.000084
     16          1           0        0.622081   -1.406279   -0.000107
     17          1           0       -0.622125    1.406683   -0.000107
     18          1           0       -1.848967   -1.444265   -0.000084
     19          1           0       -3.098985    1.365578   -0.000032
     20          1           0       -4.313504   -1.493081    0.000011
     21          1           0       -5.615454    1.300116    0.000145
     22          1           0       -6.471789   -0.339908    0.000175
 ---------------------------------------------------------------------
 Rotational constants (GHZ):          15.6176226           0.2934557           0.2880434
 Standard basis: 6-31G(d,p) (6D, 7F)
 There are   210 symmetry adapted cartesian basis functions of A   symmetry.
 There are   210 symmetry adapted basis functions of A   symmetry.
   210 basis functions,   364 primitive gaussians,   210 cartesian basis functions
    36 alpha electrons       36 beta electrons
       nuclear repulsion energy       411.3110618937 Hartrees.
 NAtoms=   22 NActive=   22 NUniq=   22 SFac= 1.00D+00 NAtFMM=   60 NAOKFM=F Big=F
 Integral buffers will be    131072 words long.
 Raffenetti 2 integral format.
 Two-electron integral symmetry is turned on.
 One-electron integrals computed using PRISM.
 NBasis=   210 RedAO= T EigKep=  1.48D-03  NBF=   210
 NBsUse=   210 1.00D-06 EigRej= -1.00D+00 NBFU=   210
 Initial guess from the checkpoint file:  "checkpoint.chk"
 B after Tr=     0.000000    0.000000   -0.000000
         Rot=    1.000000    0.000000   -0.000000   -0.000162 Ang=   0.02 deg.
 ExpMin= 1.61D-01 ExpMax= 3.05D+03 ExpMxC= 4.57D+02 IAcc=3 IRadAn=         5 AccDes= 0.00D+00
 Harris functional with IExCor=  402 and IRadAn=       5 diagonalized for initial guess.
 HarFok:  IExCor=  402 AccDes= 0.00D+00 IRadAn=         5 IDoV= 1 UseB2=F ITyADJ=14
 ICtDFT=  3500011 ScaDFX=  1.000000  1.000000  1.000000  1.000000
 FoFCou: FMM=F IPFlag=           0 FMFlag=      100000 FMFlg1=           0
         NFxFlg=           0 DoJE=T BraDBF=F KetDBF=T FulRan=T
         wScrn=  0.000000 ICntrl=       500 IOpCl=  0 I1Cent=   200000004 NGrid=           0
         NMat0=    1 NMatS0=      1 NMatT0=    0 NMatD0=    1 NMtDS0=    0 NMtDT0=    0
 Petite list used in FoFCou.
 Requested convergence on RMS density matrix=1.00D-08 within 128 cycles.
 Requested convergence on MAX density matrix=1.00D-06.
 Requested convergence on             energy=1.00D-06.
 No special actions if energy rises.
 Integral accuracy reduced to 1.0D-05 until final iterations.
 Initial convergence to 1.0D-05 achieved.  Increase integral accuracy.
 SCF Done:  E(RB3LYP) =  -388.232131056     A.U. after   11 cycles
            NFock= 11  Conv=0.49D-08     -V/T= 2.0100
 Calling FoFJK, ICntrl=      2127 FMM=F ISym2X=0 I1Cent= 0 IOpClX= 0 NMat=1 NMatS=1 NMatT=0.
 ***** Axes restored to original set *****
 -------------------------------------------------------------------
 Center     Atomic                   Forces (Hartrees/Bohr)
 Number     Number              X              Y              Z
 -------------------------------------------------------------------
      1        6           0.000044248    0.000251882   -0.000015198
      2        6           0.000106234    0.000274609   -0.000017129
      3        6          -0.001075807   -0.000297641    0.000027470
      4        6           0.000985646    0.000253987   -0.000021897
      5        6          -0.001329710   -0.000266904    0.000028012
      6        6           0.001327277    0.000265773   -0.000025338
      7        6          -0.000989042   -0.000256488    0.000024702
      8        6           0.001076088    0.000298345   -0.000025717
      9        6          -0.000107597   -0.000276867    0.000018003
     10        6          -0.000044929   -0.000250723    0.000015983
     11        1          -0.000101556   -0.000013686    0.000001834
     12        1          -0.000100087   -0.000040872    0.000003011
[...]
 ,-0.00000525,-0.00010778,0.00000222,-0.00000042,-0.00000854,-0.0000008
 6,0.00000205,0.00002608,0.00000062,-0.00000014,-0.00000435,0.00028989,
 0.00070865,0.00224917,-0.00358626,-0.02021394,0.02310161,-0.00169128,-
 0.03202223,0.00199651,-0.06258406,-0.03423957,0.00224152,0.00487243,0.
 02614011,-0.00159968,0.00166537,0.00140434,-0.00011101,-0.00008743,-0.
 00007504,0.00000361,-0.00004597,-0.00009193,0.00000577,0.00004828,-0.0
 0000857,0.00000026,-0.00001493,-0.00000121,0.00000011,0.00000853,-0.00
 000015,-0.00000009,-0.00000273,-0.00000165,0.00000009,0.00103064,0.000
 23522,-0.00007771,-0.00470123,-0.00184366,0.00023642,0.06562382,-0.000
 12780,-0.00919884,0.00087654,-0.03563767,-0.32052169,0.01718781,-0.003
 98316,-0.01711086,0.00125153,-0.00179811,0.00083394,-0.00013316,0.0004
 2436,0.00056966,-0.00005038,0.00000212,-0.00011636,0.00000571,0.000029
 01,0.00010243,-0.00000549,0.00000112,-0.00009533,0.00000517,-0.0000072
 9,0.00008125,-0.00000509,0.00004673,-0.00004358,0.00000204,-0.00009637
 ,0.00122610,-0.00049645,-0.00154221,0.00091342,0.00062517,0.03919195,0
 .34326211,0.00006270,0.00112935,0.00517227,0.00232629,0.01717672,-0.04
 276059,0.00022675,0.00101276,0.00294688,0.00008316,-0.00015854,-0.0015
 8832,-0.00002667,-0.00004643,-0.00020282,0.00000006,0.00000646,-0.0000
 2223,-0.00000202,-0.00000519,0.00001600,-0.00000003,0.00000519,-0.0000
 1026,0.00000035,-0.00000515,-0.00000337,-0.00000284,0.00000243,-0.0000
 0392,-0.00005761,-0.00049908,-0.00694371,0.00021814,0.00062756,0.01098
 294,-0.00268018,-0.01946900,0.02848351,0.00164982,0.00100737,-0.000086
 10,0.00509826,0.02605931,-0.00159698,-0.06283886,-0.03287933,0.0021809
 9,-0.00080596,-0.03089801,0.00191912,0.00141306,-0.00192854,0.00005795
 ,-0.00010021,0.00022311,-0.00001339,0.00000879,0.00006538,-0.00000218,
 0.00002633,0.00000618,-0.00000033,-0.00000493,-0.00000236,-0.00000059,
 0.00000402,0.00000038,-0.00000012,0.00012815,-0.00037431,0.00001948,-0
 .00023468,-0.00096255,0.00006249,-0.00382771,0.00264750,-0.00010165,0.
 06437762,-0.00122476,0.00114166,-0.00015091,-0.00424022,-0.01640825,0.
 00120781,-0.03433368,-0.31985558,0.01728949,-0.00069399,-0.01078157,0.
 00096011,0.00213857,0.00080746,-0.00043141,-0.00031335,0.00047589,-0.0
 0003138,0.00006156,-0.00003877,0.00001604,-0.00008361,-0.00001215,0.00
 000332,0.00003106,-0.00000606,-0.00000576,-0.00001375,-0.00001109,0.00
 000028,0.00012864,0.00040086,-0.00004215,0.00096057,0.00054807,-0.0000
 2352,0.00246673,-0.00067962,0.00023993,0.03739000,0.34341041,0.0000492
 3,-0.00016860,-0.00149761,0.00024013,0.00096765,0.00289736,0.00226917,
 0.01727797,-0.04025244,0.00008780,0.00119951,0.00488941,-0.00018864,-0
 .00039918,-0.00600259,0.00001914,-0.00003563,-0.00008058,-0.00000195,0
 .00001601,0.00023281,0.00000511,0.00000261,0.00003153,-0.00000261,-0.0
 0000550,-0.00009669,0.00000074,0.00000017,-0.00000833,-0.00001102,-0.0
 0003817,-0.00027517,-0.00005412,-0.00000827,0.00028669,-0.00009069,0.0
 0023850,0.00358637,-0.00257773,-0.01959144,0.02638335,-0.00004131,0.00
 029003,-0.00001650,0.00131009,-0.00207534,0.00006652,-0.00081255,-0.03
 095694,0.00192228,-0.06275114,-0.03146472,0.00208808,0.00507361,0.0261
 9205,-0.00160533,0.00163104,0.00139961,-0.00011206,-0.00008037,-0.0000
 9547,0.00000459,-0.00005266,-0.00007875,0.00000505,0.00004748,-0.00002
 293,0.00000118,-0.00001892,0.00000398,-0.00000021,0.00000484,0.0000846
 6,-0.00000396,0.00013763,0.00021853,-0.00001165,-0.00028502,0.00105525
 ,-0.00005997,-0.00469794,-0.00161069,0.00020846,0.06462103,-0.00018177
 ,0.00044306,-0.00001964,0.00217847,0.00083769,-0.00044233,-0.00085480,
 -0.01121647,0.00098427,-0.03270167,-0.31901794,0.01717654,-0.00380508,
 -0.01651602,0.00120706,-0.00177289,0.00083688,-0.00014586,0.00040020,0
 .00054902,-0.00005050,0.00001319,-0.00013088,0.00000670,0.00000386,0.0
 0011344,-0.00000561,0.00005782,-0.00006865,0.00000278,-0.00007680,-0.0
 0000881,0.00001038,0.00023295,-0.00002228,0.00002009,-0.00088714,0.000
 67826,-0.00002070,-0.00163910,0.00035509,0.00055427,0.03574699,0.34309
 039,0.00001210,-0.00002337,0.00009677,-0.00019139,-0.00040861,-0.00614
 663,0.00009715,0.00122285,0.00483049,0.00216308,0.01716672,-0.04105587
 ,0.00021343,0.00096932,0.00283423,0.00008030,-0.00017100,-0.00179073,-
 0.00002546,-0.00004658,-0.00022864,-0.00000053,0.00000743,-0.00001904,
 -0.00000044,-0.00000540,0.00002175,-0.00000348,0.00000321,-0.00001541,
 0.00000583,0.00000910,0.00015171,-0.00001252,0.00002021,0.00033846,0.0
 0005780,-0.00003609,0.00022265,0.00021019,0.00055404,0.00924713,-0.002
 47345,-0.01950872,0.02720599,-0.00006168,-0.00009254,0.00000584,-0.000
 09006,-0.00009387,0.00000447,0.00165734,0.00137695,-0.00011065,0.00513
 510,0.02618246,-0.00160498,-0.06266308,-0.03121051,0.00207529,-0.00070
 114,-0.03088021,0.00191658,0.00135433,-0.00195351,0.00006056,-0.000083
 70,0.00022262,-0.00001336,0.00000195,0.00006792,-0.00000220,0.00002982
 ,0.00000776,-0.00000061,0.00001645,-0.00000644,0.00000045,-0.00005009,
 -0.00001397,0.00000127,0.00003664,-0.00025369,0.00001588,-0.00028897,-
 0.00088371,0.00005792,-0.00378676,0.00246946,-0.00008844,0.06437145,0.
 00011031,-0.00010245,0.00000338,0.00035811,0.00055979,-0.00005159,-0.0
 0172967,0.00080671,-0.00014253,-0.00380995,-0.01640819,0.00120258,-0.0
 3242113,-0.31971553,0.01724213,-0.00074731,-0.01111081,0.00097563,0.00
 215599,0.00083876,-0.00042870,-0.00028054,0.00045802,-0.00002954,0.000
 02868,-0.00002228,0.00001593,-0.00004260,-0.00002145,0.00000241,0.0000
 1740,0.00001081,0.00000069,0.00003459,0.00000779,-0.00000052,-0.000243
 03,0.00010779,0.00000144,0.00100312,0.00063994,-0.00003106,0.00246199,
 -0.00067562,0.00026077,0.03540996,0.34362464,-0.00000646,0.00000498,-0
 .00003260,-0.00002293,-0.00004801,-0.00024115,0.00007771,-0.00016715,-
 0.00176064,0.00021352,0.00096488,0.00286775,0.00214868,0.01723255,-0.0
 4064033,0.00008957,0.00121443,0.00480821,-0.00018860,-0.00039614,-0.00
 592460,0.00001715,-0.00003353,-0.00006400,0.00000018,0.00001562,0.0002
 4331,0.00000245,0.00000201,0.00001257,-0.00000099,0.00000088,0.0000244
 2,-0.00000167,-0.00000013,0.00000377,0.00001524,0.00000153,0.00009961,
 -0.00005648,-0.00001610,0.00026026,-0.00008798,0.00026071,0.00393194,-
 0.00245439,-0.01956422,0.02678572,0.00002982,0.00000776,-0.00000061,0.
 00000195,0.00006792,-0.00000220,-0.00008371,0.00022261,-0.00001336,0.0
 0135440,-0.00195341,0.00006055,-0.00070108,-0.03088026,0.00191657,-0.0
 6266332,-0.03121107,0.00207532,0.00513535,0.02618230,-0.00160498,0.001
 65740,0.00137682,-0.00011064,-0.00009006,-0.00009386,0.00000447,-0.000
 06168,-0.00009254,0.00000584,0.00000080,-0.00000002,-0.00000063,0.0000
 1054,0.00000500,-0.00000025,-0.00005052,0.00003998,-0.00000194,0.00013
 503,0.00023447,-0.00001248,-0.00029162,0.00101214,-0.00005710,-0.00468
 182,-0.00164029,0.00020874,0.06437120,-0.00004260,-0.00002145,0.000002
 41,0.00002869,-0.00002227,0.00001593,-0.00028055,0.00045799,-0.0000295
 4,0.00215591,0.00083878,-0.00042871,-0.00074727,-0.01111067,0.00097562
 ,-0.03242176,-0.31971602,0.01724223,-0.00381013,-0.01640807,0.00120257
 ,-0.00172961,0.00080671,-0.00014254,0.00035812,0.00055976,-0.00005159,
 0.00011030,-0.00010245,0.00000338,-0.00000413,-0.00000148,-0.00000462,
 0.00000375,0.00000367,0.00000077,-0.00001776,0.00000774,0.00000030,0.0
 0023328,-0.00000447,0.00001993,-0.00088078,0.00064680,-0.00001728,-0.0
 0164027,0.00034979,0.00054412,0.03541072,0.34362499,0.00000245,0.00000
 201,0.00001257,0.00000018,0.00001562,0.00024331,0.00001715,-0.00003353
 ,-0.00006400,-0.00018860,-0.00039614,-0.00592456,0.00008955,0.00121440
 ,0.00480821,0.00214874,0.01723262,-0.04064024,0.00021351,0.00096491,0.
 00286770,0.00007771,-0.00016715,-0.00176063,-0.00002294,-0.00004800,-0
 .00024115,-0.00000646,0.00000498,-0.00003261,-0.00000038,-0.00000465,-
 0.00007796,-0.00000018,0.00000076,0.00001676,0.00000156,-0.00000015,0.
 00001042,-0.00001240,0.00001992,0.00035354,0.00005767,-0.00003229,0.00
 024809,0.00020874,0.00054412,0.00907489,-0.00245441,-0.01956431,0.0267
 8564,-0.00001892,0.00000398,-0.00000021,0.00004748,-0.00002292,0.00000
 118,-0.00005266,-0.00007875,0.00000504,-0.00008036,-0.00009547,0.00000
 459,0.00163098,0.00139973,-0.00011206,0.00507365,0.02619190,-0.0016053
 4,-0.06275182,-0.03146784,0.00208827,-0.00081302,-0.03095703,0.0019223
 1,0.00131004,-0.00207543,0.00006655,-0.00004131,0.00029005,-0.00001650
 ,0.00000123,-0.00000150,0.00000009,-0.00000325,-0.00000092,0.00000012,
 0.00000793,-0.00000269,0.00000014,-0.00005283,-0.00001881,0.00000161,0
 .00003948,-0.00024354,0.00001533,-0.00029163,-0.00088077,0.00005767,-0
 .00378673,0.00246199,-0.00008799,0.06462228,0.00005782,-0.00006865,0.0
 0000278,0.00000386,0.00011344,-0.00000561,0.00001320,-0.00013089,0.000
 00670,0.00040020,0.00054904,-0.00005051,-0.00177297,0.00083687,-0.0001
 4586,-0.00380521,-0.01651645,0.00120710,-0.03270469,-0.31901642,0.0171
 7670,-0.00085498,-0.01121615,0.00098426,0.00217854,0.00083767,-0.00044
 233,-0.00018177,0.00044308,-0.00001964,0.00001222,0.00000354,-0.000000
 28,0.00000106,0.00000473,-0.00000003,-0.00000379,-0.00001259,0.0000011
 1,0.00003825,0.00000889,-0.00000045,-0.00024355,0.00010149,0.00000250,
 0.00101215,0.00064683,-0.00003229,0.00246950,-0.00067566,0.00026072,0.
 03575020,0.34308891,-0.00000348,0.00000321,-0.00001541,-0.00000044,-0.
 00000540,0.00002175,-0.00000053,0.00000743,-0.00001903,-0.00002546,-0.
 00004658,-0.00022864,0.00008031,-0.00017100,-0.00179075,0.00021346,0.0
 0096941,0.00283428,0.00216326,0.01716691,-0.04105601,0.00009715,0.0012
 2277,0.00483049,-0.00019138,-0.00040863,-0.00614667,0.00001210,-0.0000
 2338,0.00009677,-0.00000075,-0.00000017,0.00000056,0.,-0.00000001,0.00
 000439,0.00000021,0.00000110,0.00000510,-0.00000185,0.,0.00000641,0.00
 001533,0.00000250,0.00011067,-0.00005710,-0.00001729,0.00024810,-0.000
 08845,0.00026078,0.00393194,-0.00247362,-0.01950891,0.02720612,0.00000
 402,0.00000038,-0.00000012,-0.00000493,-0.00000236,-0.00000059,0.00002
 633,0.00000618,-0.00000033,0.00000879,0.00006538,-0.00000218,-0.000100
 22,0.00022311,-0.00001339,0.00141314,-0.00192845,0.00005797,-0.0008063
 3,-0.03089819,0.00191914,-0.06284000,-0.03288337,0.00218120,0.00509873
 ,0.02605889,-0.00159697,0.00164985,0.00100729,-0.00008609,0.00000024,0
 .00000052,0.00000016,0.00000149,0.00000162,-0.00000019,-0.00000333,0.0
 0000345,-0.00000015,0.00001259,0.00000476,-0.00000023,-0.00005283,0.00
 003825,-0.00000185,0.00013503,0.00023328,-0.00001240,-0.00028896,0.001
 00312,-0.00005648,-0.00469798,-0.00163905,0.00021015,0.06437850,-0.000
 01375,-0.00001109,0.00000028,0.00003106,-0.00000606,-0.00000576,-0.000
 08361,-0.00001216,0.00000332,0.00006156,-0.00003877,0.00001604,-0.0003
 1335,0.00047586,-0.00003138,0.00213849,0.00080747,-0.00043141,-0.00069
 410,-0.01078103,0.00096009,-0.03433774,-0.31985487,0.01728961,-0.00424
 063,-0.01640848,0.00120783,-0.00122473,0.00114166,-0.00015092,0.,0.000
 00046,0.00000145,0.00000107,0.00000227,-0.00000073,-0.00000088,0.00000
 277,0.00000010,0.00000476,0.00000382,0.00000093,-0.00001881,0.00000889
 ,0.,0.00023447,-0.00000448,0.00001992,-0.00088371,0.00063991,-0.000016
 10,-0.00161061,0.00035513,0.00055404,0.03739448,0.34340950,0.00000074,
 0.00000017,-0.00000833,-0.00000261,-0.00000550,-0.00009669,0.00000511,
 0.00000261,0.00003154,-0.00000195,0.00001601,0.00023281,0.00001914,-0.
 00003563,-0.00008059,-0.00018863,-0.00039918,-0.00600256,0.00008780,0.
 00119939,0.00488941,0.00226938,0.01727808,-0.04025238,0.00024016,0.000
 96776,0.00289732,0.00004924,-0.00016860,-0.00149760,0.00000019,0.00000
 144,0.00002422,-0.00000015,-0.00000074,-0.00000965,0.00000011,0.000000
 07,0.00000430,-0.00000023,0.00000093,0.00001968,0.00000161,-0.00000045
 ,0.00000640,-0.00001248,0.00001993,0.00035354,0.00005792,-0.00003105,0
 .00026026,0.00020843,0.00055427,0.00924713,-0.00257792,-0.01959156,0.0
 2638331,-0.00000273,-0.00000165,0.00000009,0.00000853,-0.00000014,-0.0
 0000009,-0.00001493,-0.00000121,0.00000011,0.00004827,-0.00000856,0.00
 000026,-0.00004597,-0.00009193,0.00000577,-0.00008741,-0.00007504,0.00
 000361,0.00166532,0.00140443,-0.00011100,0.00487275,0.02613969,-0.0015
 9967,-0.06258556,-0.03424532,0.00224184,-0.00169204,-0.03202239,0.0019
 9652,0.00000069,-0.00000060,0.00000004,-0.00000054,-0.00000007,0.00000
 002,0.00000042,-0.00000108,0.00000007,-0.00000333,-0.00000088,0.000000
 11,0.00000793,-0.00000379,0.00000021,-0.00005052,-0.00001776,0.0000015
 6,0.00003663,-0.00024302,0.00001524,-0.00028503,-0.00088713,0.00005780
 ,-0.00382762,0.00246678,-0.00009072,0.06562578,0.00004673,-0.00004358,
 0.00000204,-0.00000729,0.00008125,-0.00000509,0.00000112,-0.00009534,0
 .00000517,0.00002901,0.00010243,-0.00000549,0.00000212,-0.00011636,0.0
 0000572,0.00042437,0.00056967,-0.00005038,-0.00179817,0.00083394,-0.00
 013316,-0.00398356,-0.01711146,0.00125158,-0.03564331,-0.32051958,0.01
 718781,-0.00012799,-0.00919816,0.00087651,0.00000918,0.00000169,-0.000
 00007,-0.00000057,0.00000230,-0.00000002,-0.00000108,-0.00001057,0.000
 00074,0.00000345,0.00000277,0.00000007,-0.00000269,-0.00001259,0.00000
 110,0.00003998,0.00000774,-0.00000015,-0.00025369,0.00010780,0.0000015
 3,0.00105527,0.00067828,-0.00003609,0.00264758,-0.00067972,0.00023852,
 0.03919801,0.34325989,-0.00000284,0.00000243,-0.00000392,0.00000035,-0
 .00000515,-0.00000337,-0.00000003,0.00000519,-0.00001026,-0.00000202,-
 0.00000519,0.00001600,0.00000006,0.00000646,-0.00002223,-0.00002667,-0
 .00004643,-0.00020282,0.00008318,-0.00015854,-0.00158833,0.00022677,0.
 00101292,0.00294690,0.00232661,0.01717674,-0.04276067,0.00006269,0.001
 12919,0.00517227,-0.00000055,0.,0.00000175,0.00000005,-0.00000002,0.00
 000193,0.00000007,0.00000074,0.00000150,-0.00000015,0.00000010,0.00000
 430,0.00000014,0.00000111,0.00000510,-0.00000194,0.00000030,0.00001042
 ,0.00001588,0.00000144,0.00009961,-0.00005997,-0.00002070,0.00022265,-
 0.00010168,0.00023995,0.00358637,-0.00268045,-0.01946902,0.02848357,0.
 00000675,-0.00000466,0.00000019,-0.00000323,0.00000900,-0.00000031,0.0
 0000363,-0.00000833,0.00000041,-0.00000147,0.00000609,-0.00000121,0.00
 002093,-0.00000422,0.00000037,0.00004246,0.00007621,-0.00000232,-0.000
 14029,0.00021105,-0.00001216,0.00179021,-0.00185484,0.00003942,-0.0005
 3492,-0.03099259,0.00192087,-0.06668374,-0.04331067,0.00289032,0.00000
 135,0.00000012,-0.00000004,-0.00000002,0.00000058,0.,-0.00000054,-0.00
 000057,0.00000005,0.00000149,0.00000107,-0.00000015,-0.00000325,0.0000
 0106,0.,0.00001054,0.00000375,-0.00000018,-0.00005009,0.00003459,-0.00
 000167,0.00013764,0.00023295,-0.00001252,-0.00023467,0.00096058,-0.000
 05412,-0.00470130,-0.00154209,0.00021808,0.06357813,-0.00001167,-0.000
 00146,-0.00000008,0.00001804,-0.00000886,0.00000198,-0.00003818,-0.000
 00062,-0.00000018,0.00005291,-0.00002234,-0.00000562,-0.00011039,-0.00
 000142,0.00000313,0.00009456,-0.00005891,0.00002304,-0.00031520,0.0004
 3210,-0.00002737,0.00219136,0.00097051,-0.00052669,-0.00083313,-0.0094
 2360,0.00086482,-0.04678629,-0.32922836,0.01831205,-0.00000107,0.00000
 021,-0.00000019,0.00000058,0.00000088,0.00000015,-0.00000007,0.0000023
 0,-0.00000002,0.00000162,0.00000227,-0.00000074,-0.00000092,0.00000473
 ,-0.00000001,0.00000500,0.00000367,0.00000076,-0.00001396,0.00000779,-
 0.00000013,0.00021853,-0.00002229,0.00002021,-0.00096254,0.00054805,-0
 .00000828,-0.00184354,0.00091350,0.00062755,0.05369985,0.34821469,0.00
 000062,-0.00000014,-0.00000435,-0.00000086,0.00000205,0.00002608,0.000
 00222,-0.00000041,-0.00000854,-0.00000405,-0.00000525,-0.00010778,0.00
 000681,0.00000229,0.00003559,-0.00000343,0.00002318,0.00033206,0.00001
 975,-0.00003154,-0.00005881,-0.00020592,-0.00049463,-0.00739815,0.0000
 9224,0.00110376,0.00466333,0.00310105,0.01828451,-0.03445590,0.0000000
 3,-0.00000020,-0.00000306,0.,0.00000015,0.00000348,0.00000002,-0.00000
 002,0.00000193,-0.00000019,-0.00000073,-0.00000965,0.00000012,-0.00000
 003,0.00000439,-0.00000025,0.00000077,0.00001676,0.00000127,-0.0000005
 2,0.00000377,-0.00001165,0.00002010,0.00033846,0.00006248,-0.00002351,
 0.00028669,0.00023635,0.00062516,0.01098296,-0.00358655,-0.02021377,0.
 02310159,-0.00004004,0.00002984,-0.00000152,0.00001434,-0.00006352,0.0
 0000316,-0.00002602,0.00006660,-0.00000378,-0.00001253,-0.00009631,0.0
 0000848,-0.00009046,0.00016345,-0.00000976,-0.00026412,-0.00037979,0.0
 0001336,-0.00061634,0.00137407,-0.00007670,-0.00269829,-0.00421903,0.0
 0037008,-0.01868484,0.02073253,-0.00107580,-0.23550905,0.13739341,-0.0
 0671291,-0.00000818,-0.00000061,0.00000021,0.00000135,-0.00000107,0.00
 000003,0.00000069,0.00000918,-0.00000055,0.00000024,0.,0.00000019,0.00
 000123,0.00001222,-0.00000075,0.00000080,-0.00000413,-0.00000038,0.000
 01645,0.00001740,-0.00000099,0.00000484,-0.00007680,0.00000582,0.00012
 814,0.00012865,-0.00001101,0.00103064,-0.00009636,-0.00005758,0.006760
 37,-0.00536550,0.00028994,0.24999076,0.00000245,0.00000632,-0.00000060
 ,-0.00001273,-0.00000697,-0.00000388,0.00002035,0.00001703,-0.00000076
 ,-0.00005070,-0.00001939,0.00002106,0.00004686,0.00006590,-0.00000872,
 -0.00026142,-0.00012450,-0.00008034,-0.00017442,0.00079088,-0.00003331
 ,-0.00206352,-0.00083783,0.00077808,-0.01222077,0.01057403,-0.00029006
 ,0.14192003,-0.16760507,0.00713762,-0.00000061,-0.00000038,0.00000087,
 0.00000012,0.00000021,-0.00000020,-0.00000060,0.00000169,0.,0.00000052
 ,0.00000046,0.00000144,-0.00000150,0.00000354,-0.00000017,-0.00000002,
 -0.00000148,-0.00000465,-0.00000644,0.00001081,0.00000088,0.00008465,-
 0.00000881,0.00000910,-0.00037431,0.00040085,-0.00003817,0.00023521,0.
 00122611,-0.00049908,0.02248107,-0.01233286,0.00070878,-0.14962423,0.1
 6783947,0.00000014,-0.00000082,-0.00000328,0.00000008,-0.00000348,-0.0
 0007240,-0.00000097,-0.00000112,0.00000726,0.00000572,0.00002142,0.000
 31995,-0.00000269,-0.00000964,-0.00007111,0.00000619,-0.00007941,-0.00
 147901,0.00001719,-0.00004558,0.00022134,0.00023939,0.00079515,0.01167
 517,0.00092223,-0.00055114,0.00421930,-0.00698737,0.00717348,-0.031720
 29,0.00000021,0.00000087,0.00001388,-0.00000004,-0.00000019,-0.0000030
 6,0.00000004,-0.00000007,0.00000175,0.00000016,0.00000145,0.00002422,0
 .00000009,-0.00000028,0.00000056,-0.00000063,-0.00000462,-0.00007796,0
 .00000045,0.00000069,0.00002442,-0.00000396,0.00001038,0.00015171,0.00
 001948,-0.00004215,-0.00027517,-0.00007768,-0.00049646,-0.00694373,-0.
 00139846,0.00092939,0.00224915,0.00726043,-0.00769788,0.02173729\\0.00
 001099,0.00002799,-0.00000179,-0.00004358,-0.00002764,0.00000203,0.000
 05333,0.00006894,-0.00000462,-0.00005055,-0.00006603,0.00000439,0.0000
 6032,0.00006493,-0.00000441,-0.00006024,-0.00006483,0.00000441,0.00005
 108,0.00006623,-0.00000443,-0.00005368,-0.00006897,0.00000459,0.000044
 09,0.00002785,-0.00000203,-0.00001119,-0.00002819,0.00000180,-0.000003
 39,-0.00000992,0.00000063,0.00000356,-0.00000788,0.00000046,0.00000439
 ,0.00001116,-0.00000070,-0.00000304,-0.00002164,0.00000134,0.00000214,
 0.00001798,-0.00000110,-0.00000471,-0.00001758,0.00000110,0.00000457,0
 .00001751,-0.00000110,-0.00000236,-0.00001805,0.00000112,0.00000299,0.
 00002161,-0.00000133,-0.00000458,-0.00001122,0.00000072,-0.00000351,0.
 00000788,-0.00000044,0.00000335,0.00000987,-0.00000063\\\@


 THE VALUE OF PHILOSOPHY IS, IN FACT, TO BE SOUGHT LARGELY IN ITS
 VERY UNCERTAINTY.  THE MAN WHO HAS NO TINCTURE OF PHILOSOPHY GOES
 THROUGH LIFE IMPRISONED IN THE PREJUDICES DERIVED FROM COMMON SENSE,
 FROM THE HABITUAL BELIEFS OF HIS AGE OR HIS NATION, AND FROM
 CONVICTIONS WHICH HAVE GROWN UP IN HIS MIND WITHOUT THE CO-OPERATION
 OR CONSENT OF HIS DELIBERATE REASON.  TO SUCH A MAN THE WORLD TENDS
 TO BE DEFINITE, FINITE, OBVIOUS; COMMON OBJECTS ROUSE NO QUESTIONS,
 AND UNFAMILIAR POSSIBILITIES ARE CONTEMPTUOUSLY REJECTED.

                             -- BERTRAND RUSSELL
 Job cpu time:       0 days  0 hours 23 minutes 20.9 seconds.
 Elapsed time:       0 days  0 hours  5 minutes 50.4 seconds.
 File lengths (MBytes):  RWF=    106 Int=      0 D2E=      0 Chk=     30 Scr=      1
 Normal termination of Gaussian 16 at Thu Nov  9 19:32:33 2023.
