 Entering Gaussian System, Link 0=g16
 Input=./com/7.com
 Output=./log/7.log
 Initial command:
 /home/shohei/gaussian/g16/l1.exe "/home/shohei/gaussian/scratch/Gau-13716.inp" -scrdir="/home/shohei/gaussian/scratch/"
 Entering Link 1 = /home/shohei/gaussian/g16/l1.exe PID=     13718.
  
 Copyright (c) 1988-2017, Gaussian, Inc.  All Rights Reserved.
  
 This is part of the Gaussian(R) 16 program.  It is based on
 the Gaussian(R) 09 system (copyright 2009, Gaussian, Inc.),
 the Gaussian(R) 03 system (copyright 2003, Gaussian, Inc.),
 the Gaussian(R) 98 system (copyright 1998, Gaussian, Inc.),
 the Gaussian(R) 94 system (copyright 1995, Gaussian, Inc.),
 the Gaussian 92(TM) system (copyright 1992, Gaussian, Inc.),
 the Gaussian 90(TM) system (copyright 1990, Gaussian, Inc.),
 the Gaussian 88(TM) system (copyright 1988, Gaussian, Inc.),
 the Gaussian 86(TM) system (copyright 1986, Carnegie Mellon
 University), and the Gaussian 82(TM) system (copyright 1983,
 Carnegie Mellon University). Gaussian is a federally registered
 trademark of Gaussian, Inc.
  
 This software contains proprietary and confidential information,
 including trade secrets, belonging to Gaussian, Inc.
  
 This software is provided under written license and may be
 used, copied, transmitted, or stored only in accord with that
 written license.
  
 The following legend is applicable only to US Government
 contracts under FAR:
  
                    RESTRICTED RIGHTS LEGEND
  
 Use, reproduction and disclosure by the US Government is
 subject to restrictions as set forth in subparagraphs (a)
 and (c) of the Commercial Computer Software - Restricted
 Rights clause in FAR 52.227-19.
  
 Gaussian, Inc.
 340 Quinnipiac St., Bldg. 40, Wallingford CT 06492
  
  
 ---------------------------------------------------------------
 Warning -- This program may not be used in any manner that
 competes with the business of Gaussian, Inc. or will provide
 assistance to any competitor of Gaussian, Inc.  The licensee
 of this program is prohibited from giving any competitor of
 Gaussian, Inc. access to this program.  By using this program,
 the user acknowledges that Gaussian, Inc. is engaged in the
 business of creating and licensing software in the field of
 computational chemistry and represents and warrants to the
 licensee that it is not a competitor of Gaussian, Inc. and that
 it will not use this program in any manner prohibited above.
 ---------------------------------------------------------------
  

 Cite this work as:
 Gaussian 16, Revision B.01,
 M. J. Frisch, G. W. Trucks, H. B. Schlegel, G. E. Scuseria, 
 M. A. Robb, J. R. Cheeseman, G. Scalmani, V. Barone, 
 G. A. Petersson, H. Nakatsuji, X. Li, M. Caricato, A. V. Marenich, 
 J. Bloino, B. G. Janesko, R. Gomperts, B. Mennucci, H. P. Hratchian, 
 J. V. Ortiz, A. F. Izmaylov, J. L. Sonnenberg, D. Williams-Young, 
 F. Ding, F. Lipparini, F. Egidi, J. Goings, B. Peng, A. Petrone, 
 T. Henderson, D. Ranasinghe, V. G. Zakrzewski, J. Gao, N. Rega, 
 G. Zheng, W. Liang, M. Hada, M. Ehara, K. Toyota, R. Fukuda, 
 J. Hasegawa, M. Ishida, T. Nakajima, Y. Honda, O. Kitao, H. Nakai, 
 T. Vreven, K. Throssell, J. A. Montgomery, Jr., J. E. Peralta, 
 F. Ogliaro, M. J. Bearpark, J. J. Heyd, E. N. Brothers, K. N. Kudin, 
 V. N. Staroverov, T. A. Keith, R. Kobayashi, J. Normand, 
 K. Raghavachari, A. P. Rendell, J. C. Burant, S. S. Iyengar, 
 J. Tomasi, M. Cossi, J. M. Millam, M. Klene, C. Adamo, R. Cammi, 
 J. W. Ochterski, R. L. Martin, K. Morokuma, O. Farkas, 
 J. B. Foresman, and D. J. Fox, Gaussian, Inc., Wallingford CT, 2016.
 
 ******************************************
 Gaussian 16:  EM64L-G16RevB.01 20-Dec-2017
                 9-Nov-2023 
 ******************************************
 %chk=checkpoint.chk
 %nprocshared=4
 Will use up to    4 processors via shared memory.
 ---------------------------
 # B3LYP/6-31G(d,p) OPT FREQ
 ---------------------------
 1/18=20,19=15,26=3,38=1/1,3;
 2/9=110,12=2,17=6,18=5,40=1/2;
 3/5=1,6=6,7=101,11=2,25=1,30=1,71=1,74=-5/1,2,3;
 4//1;
 5/5=2,38=5/2;
 6/7=2,8=2,9=2,10=2,28=1/1;
 7//1,2,3,16;
 1/18=20,19=15,26=3/3(2);
 2/9=110/2;
 99//99;
 2/9=110/2;
 3/5=1,6=6,7=101,11=2,25=1,30=1,71=1,74=-5/1,2,3;
 4/5=5,16=3,69=1/1;
 5/5=2,38=5/2;
 7//1,2,3,16;
 1/18=20,19=15,26=3/3(-5);
 2/9=110/2;
 6/7=2,8=2,9=2,10=2,19=2,28=1/1;
 99/9=1/99;
 -----
 7poly
 -----
 Symbolic Z-matrix:
 Charge =  0 Multiplicity = 1
 C                    -2.28292   1.13506   0.01066 
 C                    -1.06787   1.68656  -0.03222 
 C                     0.15066   0.85274   0.01386 
 C                     1.36849   1.40913  -0.02958 
 C                     2.58633   0.57342   0.01642 
 C                     3.80551   1.1269   -0.02741 
 C                     5.02086   0.28753   0.01844 
 C                     6.24185   0.83686  -0.02596 
 C                     7.4543   -0.00684   0.01969 
 C                     8.6771    0.53828  -0.02536 
 C                     9.88702  -0.30915   0.0201 
 C                     11.11112   0.23283  -0.02546 
 C                     12.31877  -0.61697   0.0199 
 C                     13.5412  -0.08244  -0.02549 
 H                    -3.16586   1.76501  -0.02442 
 H                    -2.4094    0.05862   0.08059 
 H                    -0.9827    2.76767  -0.10224 
 H                     0.05226  -0.22825   0.08399 
 H                     1.46676   2.49008  -0.0998 
 H                     2.48643  -0.5074    0.08674 
 H                     3.90676   2.20755  -0.09789 
 H                     4.91756  -0.79294   0.0891 
 H                     6.34675   1.91713  -0.0968 
 H                     7.34732  -1.08692   0.09073 
 H                     8.78548   1.61818  -0.09657 
 H                     9.77727  -1.38896   0.09148 
 H                     11.22261   1.31242  -0.09695 
 H                     12.21917  -1.6968    0.09137 
 H                     13.68255   0.99196  -0.09702 
 H                     14.41521  -0.72482   0.00908 
 

 GradGradGradGradGradGradGradGradGradGradGradGradGradGradGradGradGradGrad
 Berny optimization.
 Initialization pass.
                           ----------------------------
                           !    Initial Parameters    !
                           ! (Angstroms and Degrees)  !
 --------------------------                            --------------------------
 ! Name  Definition              Value          Derivative Info.                !
 --------------------------------------------------------------------------------
 ! R1    R(1,2)                  1.335          estimate D2E/DX2                !
 ! R2    R(1,15)                 1.0852         estimate D2E/DX2                !
 ! R3    R(1,16)                 1.0861         estimate D2E/DX2                !
 ! R4    R(2,3)                  1.4772         estimate D2E/DX2                !
 ! R5    R(2,17)                 1.0867         estimate D2E/DX2                !
 ! R6    R(3,4)                  1.3396         estimate D2E/DX2                !
 ! R7    R(3,18)                 1.0877         estimate D2E/DX2                !
 ! R8    R(4,5)                  1.4777         estimate D2E/DX2                !
 ! R9    R(4,19)                 1.0877         estimate D2E/DX2                !
 ! R10   R(5,6)                  1.3397         estimate D2E/DX2                !
 ! R11   R(5,20)                 1.0877         estimate D2E/DX2                !
 ! R12   R(6,7)                  1.4777         estimate D2E/DX2                !
 ! R13   R(6,21)                 1.0877         estimate D2E/DX2                !
 ! R14   R(7,8)                  1.3396         estimate D2E/DX2                !
 ! R15   R(7,22)                 1.0877         estimate D2E/DX2                !
 ! R16   R(8,9)                  1.4778         estimate D2E/DX2                !
 ! R17   R(8,23)                 1.0877         estimate D2E/DX2                !
 ! R18   R(9,10)                 1.3396         estimate D2E/DX2                !
 ! R19   R(9,24)                 1.0877         estimate D2E/DX2                !
 ! R20   R(10,11)                1.4779         estimate D2E/DX2                !
 ! R21   R(10,25)                1.0877         estimate D2E/DX2                !
 ! R22   R(11,12)                1.3395         estimate D2E/DX2                !
 ! R23   R(11,26)                1.0877         estimate D2E/DX2                !
 ! R24   R(12,13)                1.4774         estimate D2E/DX2                !
 ! R25   R(12,27)                1.0877         estimate D2E/DX2                !
 ! R26   R(13,14)                1.335          estimate D2E/DX2                !
 ! R27   R(13,28)                1.0868         estimate D2E/DX2                !
 ! R28   R(14,29)                1.086          estimate D2E/DX2                !
 ! R29   R(14,30)                1.0852         estimate D2E/DX2                !
 ! A1    A(2,1,15)             119.9775         estimate D2E/DX2                !
 ! A2    A(2,1,16)             121.1633         estimate D2E/DX2                !
 ! A3    A(15,1,16)            118.8593         estimate D2E/DX2                !
 ! A4    A(1,2,3)              121.1021         estimate D2E/DX2                !
 ! A5    A(1,2,17)             118.9704         estimate D2E/DX2                !
 ! A6    A(3,2,17)             119.9275         estimate D2E/DX2                !
 ! A7    A(2,3,4)              120.9602         estimate D2E/DX2                !
 ! A8    A(2,3,18)             119.2322         estimate D2E/DX2                !
 ! A9    A(4,3,18)             119.8077         estimate D2E/DX2                !
 ! A10   A(3,4,5)              120.8846         estimate D2E/DX2                !
 ! A11   A(3,4,19)             119.8011         estimate D2E/DX2                !
 ! A12   A(5,4,19)             119.3142         estimate D2E/DX2                !
 ! A13   A(4,5,6)              121.0204         estimate D2E/DX2                !
 ! A14   A(4,5,20)             119.2279         estimate D2E/DX2                !
 ! A15   A(6,5,20)             119.7517         estimate D2E/DX2                !
 ! A16   A(5,6,7)              120.8498         estimate D2E/DX2                !
 ! A17   A(5,6,21)             119.8232         estimate D2E/DX2                !
 ! A18   A(7,6,21)             119.327          estimate D2E/DX2                !
 ! A19   A(6,7,8)              121.0418         estimate D2E/DX2                !
 ! A20   A(6,7,22)             119.2185         estimate D2E/DX2                !
 ! A21   A(8,7,22)             119.7398         estimate D2E/DX2                !
 ! A22   A(7,8,9)              120.8405         estimate D2E/DX2                !
 ! A23   A(7,8,23)             119.8246         estimate D2E/DX2                !
 ! A24   A(9,8,23)             119.3349         estimate D2E/DX2                !
 ! A25   A(8,9,10)             121.0352         estimate D2E/DX2                !
 ! A26   A(8,9,24)             119.2249         estimate D2E/DX2                !
 ! A27   A(10,9,24)            119.7399         estimate D2E/DX2                !
 ! A28   A(9,10,11)            120.8611         estimate D2E/DX2                !
 ! A29   A(9,10,25)            119.8139         estimate D2E/DX2                !
 ! A30   A(11,10,25)           119.325          estimate D2E/DX2                !
 ! A31   A(10,11,12)           121.0045         estimate D2E/DX2                !
 ! A32   A(10,11,26)           119.2524         estimate D2E/DX2                !
 ! A33   A(12,11,26)           119.7431         estimate D2E/DX2                !
 ! A34   A(11,12,13)           120.8791         estimate D2E/DX2                !
 ! A35   A(11,12,27)           119.8354         estimate D2E/DX2                !
 ! A36   A(13,12,27)           119.2855         estimate D2E/DX2                !
 ! A37   A(12,13,14)           121.1421         estimate D2E/DX2                !
 ! A38   A(12,13,28)           119.9101         estimate D2E/DX2                !
 ! A39   A(14,13,28)           118.9478         estimate D2E/DX2                !
 ! A40   A(13,14,29)           121.1682         estimate D2E/DX2                !
 ! A41   A(13,14,30)           119.9592         estimate D2E/DX2                !
 ! A42   A(29,14,30)           118.8726         estimate D2E/DX2                !
 ! D1    D(15,1,2,3)          -179.9977         estimate D2E/DX2                !
 ! D2    D(15,1,2,17)           -0.0007         estimate D2E/DX2                !
 ! D3    D(16,1,2,3)             0.0007         estimate D2E/DX2                !
 ! D4    D(16,1,2,17)          179.9977         estimate D2E/DX2                !
 ! D5    D(1,2,3,4)            179.9886         estimate D2E/DX2                !
 ! D6    D(1,2,3,18)            -0.0054         estimate D2E/DX2                !
 ! D7    D(17,2,3,4)            -0.0084         estimate D2E/DX2                !
 ! D8    D(17,2,3,18)          179.9976         estimate D2E/DX2                !
 ! D9    D(2,3,4,5)           -179.9904         estimate D2E/DX2                !
 ! D10   D(2,3,4,19)             0.0006         estimate D2E/DX2                !
 ! D11   D(18,3,4,5)             0.0035         estimate D2E/DX2                !
 ! D12   D(18,3,4,19)          179.9946         estimate D2E/DX2                !
 ! D13   D(3,4,5,6)            179.9721         estimate D2E/DX2                !
 ! D14   D(3,4,5,20)            -0.0155         estimate D2E/DX2                !
 ! D15   D(19,4,5,6)            -0.019          estimate D2E/DX2                !
 ! D16   D(19,4,5,20)          179.9934         estimate D2E/DX2                !
 ! D17   D(4,5,6,7)           -179.9821         estimate D2E/DX2                !
 ! D18   D(4,5,6,21)             0.0031         estimate D2E/DX2                !
 ! D19   D(20,5,6,7)             0.0055         estimate D2E/DX2                !
 ! D20   D(20,5,6,21)          179.9907         estimate D2E/DX2                !
 ! D21   D(5,6,7,8)            179.9584         estimate D2E/DX2                !
 ! D22   D(5,6,7,22)            -0.025          estimate D2E/DX2                !
 ! D23   D(21,6,7,8)            -0.027          estimate D2E/DX2                !
 ! D24   D(21,6,7,22)          179.9897         estimate D2E/DX2                !
 ! D25   D(6,7,8,9)           -179.9775         estimate D2E/DX2                !
 ! D26   D(6,7,8,23)             0.0053         estimate D2E/DX2                !
 ! D27   D(22,7,8,9)             0.0058         estimate D2E/DX2                !
 ! D28   D(22,7,8,23)          179.9886         estimate D2E/DX2                !
 ! D29   D(7,8,9,10)           179.9548         estimate D2E/DX2                !
 ! D30   D(7,8,9,24)            -0.0288         estimate D2E/DX2                !
 ! D31   D(23,8,9,10)           -0.028          estimate D2E/DX2                !
 ! D32   D(23,8,9,24)          179.9884         estimate D2E/DX2                !
 ! D33   D(8,9,10,11)         -179.9795         estimate D2E/DX2                !
 ! D34   D(8,9,10,25)            0.0059         estimate D2E/DX2                !
 ! D35   D(24,9,10,11)           0.004          estimate D2E/DX2                !
 ! D36   D(24,9,10,25)         179.9894         estimate D2E/DX2                !
 ! D37   D(9,10,11,12)         179.9648         estimate D2E/DX2                !
 ! D38   D(9,10,11,26)          -0.024          estimate D2E/DX2                !
 ! D39   D(25,10,11,12)         -0.0207         estimate D2E/DX2                !
 ! D40   D(25,10,11,26)        179.9906         estimate D2E/DX2                !
 ! D41   D(10,11,12,13)       -179.9877         estimate D2E/DX2                !
 ! D42   D(10,11,12,27)          0.0043         estimate D2E/DX2                !
 ! D43   D(26,11,12,13)          0.0011         estimate D2E/DX2                !
 ! D44   D(26,11,12,27)        179.993          estimate D2E/DX2                !
 ! D45   D(11,12,13,14)        179.9836         estimate D2E/DX2                !
 ! D46   D(11,12,13,28)         -0.0123         estimate D2E/DX2                !
 ! D47   D(27,12,13,14)         -0.0084         estimate D2E/DX2                !
 ! D48   D(27,12,13,28)        179.9957         estimate D2E/DX2                !
 ! D49   D(12,13,14,29)          0.0009         estimate D2E/DX2                !
 ! D50   D(12,13,14,30)       -179.9968         estimate D2E/DX2                !
 ! D51   D(28,13,14,29)        179.9968         estimate D2E/DX2                !
 ! D52   D(28,13,14,30)         -0.0009         estimate D2E/DX2                !
 --------------------------------------------------------------------------------
 Trust Radius=3.00D-01 FncErr=1.00D-07 GrdErr=1.00D-06 EigMax=2.50D+02 EigMin=1.00D-04
 Number of steps in this run=    133 maximum allowed number of steps=    180.
 GradGradGradGradGradGradGradGradGradGradGradGradGradGradGradGradGradGrad

                          Input orientation:                          
 ---------------------------------------------------------------------
 Center     Atomic      Atomic             Coordinates (Angstroms)
 Number     Number       Type             X           Y           Z
 ---------------------------------------------------------------------
      1          6           0       -2.282918    1.135058    0.010662
      2          6           0       -1.067867    1.686558   -0.032220
      3          6           0        0.150659    0.852740    0.013862
      4          6           0        1.368494    1.409129   -0.029580
      5          6           0        2.586325    0.573415    0.016416
      6          6           0        3.805507    1.126899   -0.027407
      7          6           0        5.020864    0.287526    0.018445
      8          6           0        6.241852    0.836857   -0.025959
      9          6           0        7.454296   -0.006835    0.019694
     10          6           0        8.677104    0.538276   -0.025357
     11          6           0        9.887019   -0.309150    0.020104
     12          6           0       11.111120    0.232830   -0.025461
     13          6           0       12.318770   -0.616970    0.019900
     14          6           0       13.541197   -0.082443   -0.025493
     15          1           0       -3.165859    1.765006   -0.024421
     16          1           0       -2.409400    0.058622    0.080594
     17          1           0       -0.982702    2.767666   -0.102236
     18          1           0        0.052263   -0.228253    0.083992
     19          1           0        1.466762    2.490081   -0.099796
     20          1           0        2.486425   -0.507397    0.086744
     21          1           0        3.906755    2.207547   -0.097886
     22          1           0        4.917562   -0.792941    0.089097
     23          1           0        6.346753    1.917134   -0.096799
     24          1           0        7.347317   -1.086920    0.090730
     25          1           0        8.785478    1.618185   -0.096568
     26          1           0        9.777273   -1.388956    0.091475
     27          1           0       11.222606    1.312419   -0.096948
     28          1           0       12.219169   -1.696803    0.091374
     29          1           0       13.682554    0.991963   -0.097019
     30          1           0       14.415209   -0.724821    0.009075
 ---------------------------------------------------------------------
                    Distance matrix (angstroms):
                    1          2          3          4          5
     1  C    0.000000
     2  C    1.335043   0.000000
     3  C    2.449900   1.477220   0.000000
     4  C    3.661905   2.452107   1.339619   0.000000
     5  C    4.901531   3.820284   2.451632   1.477716   0.000000
     6  C    6.088549   4.905406   3.665349   2.453302   1.339652
     7  C    7.352795   6.247599   4.902896   3.821008   2.451268
     8  C    8.530063   7.358942   6.091345   4.906845   3.665252
     9  C    9.803945   8.688931   7.354048   6.248549   4.902432
    10  C   10.976317   9.812393   8.532333   7.360312   6.091024
    11  C   12.255333  11.135309   9.805445   8.690237   7.353847
    12  C   13.424439  12.265442  10.978048   9.813381   8.531698
    13  C   14.706427  13.583483  12.256550  11.136250   9.804974
    14  C   15.870924  14.715779  13.423213  12.263748  10.974567
    15  H    1.085196   2.099473   3.439911   4.548300   5.874452
    16  H    1.086094   2.112490   2.681227   4.013539   5.022589
    17  H    2.090148   1.086715   2.228211   2.716436   4.191273
    18  H    2.705007   2.221417   1.087725   2.103896   2.658704
    19  H    3.988532   2.659804   2.103789   1.087678   2.222731
    20  H    5.044807   4.178586   2.703903   2.221795   1.087696
    21  H    6.282839   5.002260   3.994528   2.661749   2.104040
    22  H    7.454545   6.479814   5.043540   4.178406   2.703124
    23  H    8.665703   7.418485   6.287826   5.004562   3.994898
    24  H    9.883573   8.861298   7.453863   6.480050   5.042745
    25  H   11.079454   9.853792   8.669383   7.420232   6.287591
    26  H   12.321744  11.273470   9.884479   8.862928   7.454278
    27  H   13.507118  12.296337  11.082040   9.854817   8.668583
    28  H   14.776213  13.711591  12.335117  11.287098   9.897029
    29  H   15.966477  14.766908  13.533066  12.321309  11.104699
    30  H   16.801387  15.669783  14.351520  13.220137  11.899915
                    6          7          8          9         10
     6  C    0.000000
     7  C    1.477749   0.000000
     8  C    2.453550   1.339608   0.000000
     9  C    3.821156   2.451172   1.477809   0.000000
    10  C    4.907030   3.665091   2.453488   1.339566   0.000000
    11  C    6.248943   4.902601   3.821348   2.451436   1.477867
    12  C    7.360118   6.090660   4.906589   3.664947   2.453106
    13  C    8.690165   7.353744   6.248572   4.902589   3.820782
    14  C    9.810514   8.528475   7.357007   6.087539   4.903539
    15  H    7.000510   8.319088   9.453386  10.767036  11.906329
    16  H    6.306976   7.434049   8.686839   9.864101  11.097382
    17  H    5.062080   6.496804   7.478504   8.882323   9.914028
    18  H    3.991952   4.995730   6.281526   7.405623   8.659527
    19  H    2.707994   4.182926   5.053720   6.488408   7.470216
    20  H    2.103314   2.657056   3.990358   4.993476   6.279372
    21  H    1.087666   2.222892   2.708624   4.183582   5.054499
    22  H    2.221717   1.087691   2.103146   2.656651   3.989911
    23  H    2.662183   2.104016   1.087667   2.223034   2.708670
    24  H    4.178441   2.703093   2.221843   1.087692   2.103110
    25  H    5.004624   3.994521   2.661858   2.103866   1.087667
    26  H    6.481176   5.043744   4.179382   2.704003   2.222215
    27  H    7.419745   6.286917   5.003909   3.994271   2.661579
    28  H    8.875647   7.467160   6.493190   5.056199   4.189919
    29  H    9.878214   8.691055   7.442658   6.308916   5.026479
    30  H   10.770143   9.448739   8.321288   6.997852   5.875580
                   11         12         13         14         15
    11  C    0.000000
    12  C    1.339492   0.000000
    13  C    2.451156   1.477375   0.000000
    14  C    3.661488   2.450444   1.334956   0.000000
    15  H   13.216722  14.358959  15.666829  16.808891   0.000000
    16  H   12.302067  13.522058  14.743782  15.951574   1.869493
    17  H   11.297460  12.356853  13.725882  14.801103   2.403655
    18  H    9.835296  11.069006  12.272832  13.490167   3.786970
    19  H    8.874165   9.905269  11.288675  12.345663   4.689626
    20  H    7.403549   8.657129   9.833183  11.063506   6.092987
    21  H    6.489318   7.470450   8.874332   9.903119   7.086827
    22  H    4.993427   6.278971   7.403623   8.653613   8.479250
    23  H    4.183718   5.053827   6.488474   7.467492   9.514104
    24  H    2.657066   3.990169   4.994118   6.275877  10.893742
    25  H    2.222977   2.707928   4.182540   5.051144  11.952457
    26  H    1.087713   2.103096   2.657122   3.985949  13.322371
    27  H    2.104039   1.087682   2.222110   2.706771  14.395765
    28  H    2.714697   2.228207   1.086769   2.089874  15.770118
    29  H    4.014063   2.682103   2.112402   1.086023  16.866295
    30  H    4.547242   3.440246   2.099239   1.085237  17.756529
                   16         17         18         19         20
    16  H    0.000000
    17  H    3.067215   0.000000
    18  H    2.478325   3.175116   0.000000
    19  H    4.579210   2.465143   3.069840   0.000000
    20  H    4.928440   4.774578   2.450117   3.171653   0.000000
    21  H    6.674096   4.921437   4.563256   2.456297   3.069584
    22  H    7.376287   6.894030   4.897962   4.766753   2.447850
    23  H    8.952974   7.378641   6.652516   4.913511   4.562255
    24  H    9.823742   9.180647   7.345418   6.885649   4.895317
    25  H   11.304376   9.835582   8.928100   7.370470   6.650547
    26  H   12.272351  11.536554   9.794034   9.173227   7.343952
    27  H   13.690695  12.291758  11.277543   9.826668   8.925600
    28  H   14.733522  13.937660  12.255215  11.540399   9.805152
    29  H   16.119977  14.772369  13.685997  12.307313  11.297573
    30  H   16.842992  15.789412  14.371723  13.342029  11.931018
                   21         22         23         24         25
    21  H    0.000000
    22  H    3.171690   0.000000
    23  H    2.457220   3.069470   0.000000
    24  H    4.767237   2.447475   3.171850   0.000000
    25  H    4.914192   4.561663   2.456980   3.069361   0.000000
    26  H    6.887210   4.896123   4.768034   2.448655   3.172052
    27  H    7.370409   6.649867   4.913210   4.561789   2.456234
    28  H    9.185641   7.357339   6.897915   4.909878   4.776474
    29  H    9.851086   8.946821   7.393912   6.670250   4.936953
    30  H   10.910446   9.498228   8.490649   7.077633   6.098746
                   26         27         28         29         30
    26  H    0.000000
    27  H    3.069514   0.000000
    28  H    2.461225   3.175534   0.000000
    29  H    4.577721   2.480733   3.066994   0.000000
    30  H    4.685971   3.788707   2.402939   1.869595   0.000000
 Stoichiometry    C14H16
 Framework group  C1[X(C14H16)]
 Deg. of freedom    84
 Full point group                 C1      NOp   1
 Largest Abelian subgroup         C1      NOp   1
 Largest concise Abelian subgroup C1      NOp   1
                         Standard orientation:                         
 ---------------------------------------------------------------------
 Center     Atomic      Atomic             Coordinates (Angstroms)
 Number     Number       Type             X           Y           Z
 ---------------------------------------------------------------------
      1          6           0        7.929070   -0.285092    0.003406
      2          6           0        6.781965    0.397909    0.001761
      3          6           0        5.479208   -0.298512    0.000841
      4          6           0        4.329873    0.389678   -0.000581
      5          6           0        3.027598   -0.308694   -0.001288
      6          6           0        1.876606    0.376788   -0.002152
      7          6           0        0.576388   -0.325475   -0.002460
      8          6           0       -0.576857    0.356123   -0.002489
      9          6           0       -1.874654   -0.350731   -0.002298
     10          6           0       -3.030171    0.326924   -0.001422
     11          6           0       -4.325865   -0.383898   -0.000780
     12          6           0       -5.483010    0.290826    0.000802
     13          6           0       -6.776714   -0.422592    0.001713
     14          6           0       -7.933015    0.244545    0.003617
     15          1           0        8.875876    0.245199    0.004096
     16          1           0        7.936522   -1.371160    0.004102
     17          1           0        6.816093    1.484088    0.001146
     18          1           0        5.458243   -1.386035    0.001431
     19          1           0        4.350961    1.477152   -0.001081
     20          1           0        3.008149   -1.396215   -0.000896
     21          1           0        1.894697    1.464304   -0.002392
     22          1           0        0.560357   -1.413048   -0.002389
     23          1           0       -0.562436    1.443695   -0.002371
     24          1           0       -1.886987   -1.438353   -0.002609
     25          1           0       -3.019243    1.414536   -0.000936
     26          1           0       -4.335416   -1.471569   -0.001424
     27          1           0       -5.475211    1.378480    0.001562
     28          1           0       -6.796353   -1.509184    0.000896
     29          1           0       -7.955475    1.330336    0.004535
     30          1           0       -8.872312   -0.299019    0.004309
 ---------------------------------------------------------------------
 Rotational constants (GHZ):          10.3719154           0.1098748           0.1087231
 Standard basis: 6-31G(d,p) (6D, 7F)
 There are   290 symmetry adapted cartesian basis functions of A   symmetry.
 There are   290 symmetry adapted basis functions of A   symmetry.
   290 basis functions,   504 primitive gaussians,   290 cartesian basis functions
    50 alpha electrons       50 beta electrons
       nuclear repulsion energy       664.0808826821 Hartrees.
 NAtoms=   30 NActive=   30 NUniq=   30 SFac= 1.00D+00 NAtFMM=   60 NAOKFM=F Big=F
 Integral buffers will be    131072 words long.
 Raffenetti 2 integral format.
 Two-electron integral symmetry is turned on.
 One-electron integrals computed using PRISM.
 NBasis=   290 RedAO= T EigKep=  1.30D-03  NBF=   290
 NBsUse=   290 1.00D-06 EigRej= -1.00D+00 NBFU=   290
 ExpMin= 1.61D-01 ExpMax= 3.05D+03 ExpMxC= 4.57D+02 IAcc=3 IRadAn=         5 AccDes= 0.00D+00
 Harris functional with IExCor=  402 and IRadAn=       5 diagonalized for initial guess.
 HarFok:  IExCor=  402 AccDes= 0.00D+00 IRadAn=         5 IDoV= 1 UseB2=F ITyADJ=14
 ICtDFT=  3500011 ScaDFX=  1.000000  1.000000  1.000000  1.000000
 FoFCou: FMM=F IPFlag=           0 FMFlag=      100000 FMFlg1=           0
         NFxFlg=           0 DoJE=T BraDBF=F KetDBF=T FulRan=T
         wScrn=  0.000000 ICntrl=       500 IOpCl=  0 I1Cent=   200000004 NGrid=           0
         NMat0=    1 NMatS0=      1 NMatT0=    0 NMatD0=    1 NMtDS0=    0 NMtDT0=    0
 Petite list used in FoFCou.
 Requested convergence on RMS density matrix=1.00D-08 within 128 cycles.
 Requested convergence on MAX density matrix=1.00D-06.
 Requested convergence on             energy=1.00D-06.
 No special actions if energy rises.
 Integral accuracy reduced to 1.0D-05 until final iterations.
 Initial convergence to 1.0D-05 achieved.  Increase integral accuracy.
 SCF Done:  E(RB3LYP) =  -543.039870219     A.U. after   13 cycles
            NFock= 13  Conv=0.64D-08     -V/T= 2.0100

 **********************************************************************

            Population analysis using the SCF Density.

 **********************************************************************

 Orbital symmetries:
       Occupied  (A) (A) (A) (A) (A) (A) (A) (A) (A) (A) (A) (A)
                 (A) (A) (A) (A) (A) (A) (A) (A) (A) (A) (A) (A)
                 (A) (A) (A) (A) (A) (A) (A) (A) (A) (A) (A) (A)
                 (A) (A) (A) (A) (A) (A) (A) (A) (A) (A) (A) (A)
                 (A) (A)
       Virtual   (A) (A) (A) (A) (A) (A) (A) (A) (A) (A) (A) (A)
                 (A) (A) (A) (A) (A) (A) (A) (A) (A) (A) (A) (A)
                 (A) (A) (A) (A) (A) (A) (A) (A) (A) (A) (A) (A)
                 (A) (A) (A) (A) (A) (A) (A) (A) (A) (A) (A) (A)
                 (A) (A) (A) (A) (A) (A) (A) (A) (A) (A) (A) (A)
                 (A) (A) (A) (A) (A) (A) (A) (A) (A) (A) (A) (A)
                 (A) (A) (A) (A) (A) (A) (A) (A) (A) (A) (A) (A)
                 (A) (A) (A) (A) (A) (A) (A) (A) (A) (A) (A) (A)
                 (A) (A) (A) (A) (A) (A) (A) (A) (A) (A) (A) (A)
                 (A) (A) (A) (A) (A) (A) (A) (A) (A) (A) (A) (A)
                 (A) (A) (A) (A) (A) (A) (A) (A) (A) (A) (A) (A)
                 (A) (A) (A) (A) (A) (A) (A) (A) (A) (A) (A) (A)
                 (A) (A) (A) (A) (A) (A) (A) (A) (A) (A) (A) (A)
                 (A) (A) (A) (A) (A) (A) (A) (A) (A) (A) (A) (A)
                 (A) (A) (A) (A) (A) (A) (A) (A) (A) (A) (A) (A)
                 (A) (A) (A) (A) (A) (A) (A) (A) (A) (A) (A) (A)
                 (A) (A) (A) (A) (A) (A) (A) (A) (A) (A) (A) (A)
                 (A) (A) (A) (A) (A) (A) (A) (A) (A) (A) (A) (A)
                 (A) (A) (A) (A) (A) (A) (A) (A) (A) (A) (A) (A)
                 (A) (A) (A) (A) (A) (A) (A) (A) (A) (A) (A) (A)
 The electronic state is 1-A.
 Alpha  occ. eigenvalues --  -10.19161 -10.19147 -10.19139 -10.19129 -10.19118
 Alpha  occ. eigenvalues --  -10.19110 -10.19100 -10.19045 -10.19033 -10.19024
 Alpha  occ. eigenvalues --  -10.18968 -10.18951 -10.17945 -10.17926  -0.82726
 Alpha  occ. eigenvalues --   -0.81777  -0.80252  -0.78191  -0.75651  -0.72770
 Alpha  occ. eigenvalues --   -0.70018  -0.62742  -0.59418  -0.56883  -0.56087
 Alpha  occ. eigenvalues --   -0.55927  -0.54922  -0.54242  -0.48347  -0.47716
 Alpha  occ. eigenvalues --   -0.46573  -0.45085  -0.43887  -0.41602  -0.40391
 Alpha  occ. eigenvalues --   -0.39515  -0.38150  -0.37842  -0.37429  -0.36746
 Alpha  occ. eigenvalues --   -0.35867  -0.35014  -0.34634  -0.33808  -0.33262
 Alpha  occ. eigenvalues --   -0.31853  -0.29186  -0.25868  -0.22059  -0.18327
 Alpha virt. eigenvalues --   -0.06298  -0.02234   0.02142   0.05877   0.08436
 Alpha virt. eigenvalues --    0.08540   0.09660   0.09847   0.09924   0.11791
 Alpha virt. eigenvalues --    0.12608   0.12629   0.13937   0.14375   0.14497
 Alpha virt. eigenvalues --    0.15030   0.15420   0.16495   0.17117   0.19445
 Alpha virt. eigenvalues --    0.19633   0.20217   0.20862   0.26557   0.30238
 Alpha virt. eigenvalues --    0.31567   0.32030   0.32932   0.35075   0.36109
 Alpha virt. eigenvalues --    0.36983   0.37763   0.39421   0.41826   0.41983
 Alpha virt. eigenvalues --    0.42232   0.48026   0.48438   0.51802   0.52563
 Alpha virt. eigenvalues --    0.53875   0.54784   0.55331   0.55736   0.57436
 Alpha virt. eigenvalues --    0.58082   0.58519   0.58822   0.59247   0.60173
 Alpha virt. eigenvalues --    0.60380   0.60672   0.61087   0.62094   0.63032
 Alpha virt. eigenvalues --    0.64837   0.64979   0.65610   0.65645   0.67196
 Alpha virt. eigenvalues --    0.69419   0.69973   0.70434   0.70681   0.74797
 Alpha virt. eigenvalues --    0.75228   0.78792   0.79845   0.81740   0.83286
 Alpha virt. eigenvalues --    0.83805   0.84645   0.85100   0.85284   0.86117
 Alpha virt. eigenvalues --    0.86835   0.87421   0.87516   0.87937   0.89467
 Alpha virt. eigenvalues --    0.91237   0.91649   0.92498   0.92977   0.94558
 Alpha virt. eigenvalues --    0.97614   0.99485   1.03312   1.03607   1.05725
 Alpha virt. eigenvalues --    1.06120   1.07192   1.08508   1.09489   1.11777
 Alpha virt. eigenvalues --    1.11983   1.17672   1.18479   1.24003   1.26876
 Alpha virt. eigenvalues --    1.29048   1.29830   1.29863   1.30993   1.31142
 Alpha virt. eigenvalues --    1.31492   1.32451   1.33114   1.33201   1.34452
 Alpha virt. eigenvalues --    1.36278   1.37537   1.37858   1.39753   1.41907
 Alpha virt. eigenvalues --    1.44331   1.46911   1.47233   1.49327   1.51129
 Alpha virt. eigenvalues --    1.51837   1.51970   1.52522   1.76292   1.76526
 Alpha virt. eigenvalues --    1.76715   1.76729   1.77824   1.77927   1.83342
 Alpha virt. eigenvalues --    1.86196   1.86282   1.87293   1.92240   1.92636
 Alpha virt. eigenvalues --    1.92865   1.93053   1.94702   1.95338   1.97090
 Alpha virt. eigenvalues --    1.97407   1.98909   1.98964   2.03140   2.04624
 Alpha virt. eigenvalues --    2.04692   2.08735   2.09248   2.10611   2.10757
 Alpha virt. eigenvalues --    2.15283   2.17096   2.17432   2.17590   2.18862
 Alpha virt. eigenvalues --    2.21696   2.22068   2.23312   2.23608   2.25430
 Alpha virt. eigenvalues --    2.29019   2.31313   2.32868   2.36549   2.41471
 Alpha virt. eigenvalues --    2.41706   2.42447   2.45382   2.46604   2.48381
 Alpha virt. eigenvalues --    2.48688   2.48937   2.50082   2.50688   2.51135
 Alpha virt. eigenvalues --    2.53025   2.53439   2.54141   2.54778   2.56613
 Alpha virt. eigenvalues --    2.58287   2.59261   2.61856   2.62355   2.63207
 Alpha virt. eigenvalues --    2.64001   2.66363   2.67118   2.67583   2.69743
 Alpha virt. eigenvalues --    2.69856   2.70855   2.71199   2.71745   2.72853
 Alpha virt. eigenvalues --    2.77131   2.79934   2.81915   2.85327   2.86507
 Alpha virt. eigenvalues --    2.88827   2.91200   2.91488   2.92114   2.94877
 Alpha virt. eigenvalues --    2.95077   2.97876   2.98269   2.99788   3.00046
 Alpha virt. eigenvalues --    3.28011   3.28030   3.35413   3.36429   3.38184
 Alpha virt. eigenvalues --    3.40391   3.43169   3.47039   3.52135   3.53736
 Alpha virt. eigenvalues --    3.60228   3.60232   3.65436   3.66099   3.70903
 Alpha virt. eigenvalues --    3.71164   4.13696   4.13851   4.14164   4.14863
 Alpha virt. eigenvalues --    4.16344   4.18944   4.24310   4.27827   4.35273
 Alpha virt. eigenvalues --    4.43767   4.53013   4.62024   4.69579   4.74589
          Condensed to atoms (all electrons):
               1          2          3          4          5          6
     1  C    4.965434   0.618720  -0.031419   0.002713  -0.000276   0.000005
     2  C    0.618720   4.740102   0.420980  -0.020074   0.004040  -0.000269
     3  C   -0.031419   0.420980   4.861231   0.577854  -0.018256   0.002518
     4  C    0.002713  -0.020074   0.577854   4.868816   0.392832  -0.016742
     5  C   -0.000276   0.004040  -0.018256   0.392832   4.887083   0.563791
     6  C    0.000005  -0.000269   0.002518  -0.016742   0.563791   4.881535
     7  C   -0.000000   0.000002  -0.000255   0.003646  -0.017043   0.395682
     8  C   -0.000000  -0.000000   0.000004  -0.000256   0.002539  -0.017547
     9  C    0.000000   0.000000  -0.000000   0.000002  -0.000256   0.003680
    10  C    0.000000   0.000000  -0.000000  -0.000000   0.000004  -0.000257
    11  C   -0.000000   0.000000   0.000000   0.000000  -0.000000   0.000002
    12  C    0.000000  -0.000000   0.000000   0.000000  -0.000000  -0.000000
    13  C    0.000000   0.000000  -0.000000   0.000000   0.000000   0.000000
    14  C    0.000000   0.000000   0.000000  -0.000000   0.000000   0.000000
    15  H    0.369509  -0.020445   0.004031  -0.000224   0.000003  -0.000000
    16  H    0.382765  -0.035921  -0.012744   0.000562  -0.000000  -0.000000
    17  H   -0.050975   0.381956  -0.047458  -0.005753   0.000268  -0.000005
    18  H   -0.005178  -0.046719   0.379546  -0.051066  -0.009582   0.000552
    19  H    0.000484  -0.009036  -0.053540   0.381319  -0.047963  -0.005243
    20  H   -0.000003   0.000240  -0.005252  -0.048087   0.381162  -0.052762
    21  H    0.000000  -0.000003   0.000528  -0.009180  -0.052856   0.380882
    22  H    0.000000  -0.000000  -0.000004   0.000252  -0.005301  -0.047993
    23  H    0.000000   0.000000  -0.000000  -0.000004   0.000536  -0.009245
    24  H   -0.000000  -0.000000   0.000000  -0.000000  -0.000004   0.000254
    25  H    0.000000  -0.000000   0.000000   0.000000  -0.000000  -0.000004
    26  H   -0.000000   0.000000   0.000000  -0.000000   0.000000  -0.000000
    27  H    0.000000  -0.000000   0.000000  -0.000000   0.000000   0.000000
    28  H    0.000000   0.000000  -0.000000   0.000000   0.000000  -0.000000
    29  H    0.000000   0.000000   0.000000  -0.000000   0.000000  -0.000000
    30  H    0.000000   0.000000   0.000000   0.000000   0.000000   0.000000
               7          8          9         10         11         12
     1  C   -0.000000  -0.000000   0.000000   0.000000  -0.000000   0.000000
     2  C    0.000002  -0.000000   0.000000   0.000000   0.000000  -0.000000
     3  C   -0.000255   0.000004  -0.000000  -0.000000   0.000000   0.000000
     4  C    0.003646  -0.000256   0.000002  -0.000000   0.000000   0.000000
     5  C   -0.017043   0.002539  -0.000256   0.000004  -0.000000  -0.000000
     6  C    0.395682  -0.017547   0.003680  -0.000257   0.000002  -0.000000
     7  C    4.881244   0.564724  -0.017130   0.002534  -0.000255   0.000004
     8  C    0.564724   4.882166   0.395682  -0.017426   0.003652  -0.000255
     9  C   -0.017130   0.395682   4.880717   0.563815  -0.016406   0.002504
    10  C    0.002534  -0.017426   0.563815   4.887868   0.392811  -0.018507
    11  C   -0.000255   0.003652  -0.016406   0.392811   4.868339   0.577899
    12  C    0.000004  -0.000255   0.002504  -0.018507   0.577899   4.861643
    13  C   -0.000000   0.000002  -0.000268   0.004051  -0.019882   0.420975
    14  C   -0.000000  -0.000000   0.000005  -0.000277   0.002690  -0.031498
    15  H    0.000000  -0.000000   0.000000   0.000000   0.000000   0.000000
    16  H    0.000000   0.000000  -0.000000   0.000000  -0.000000   0.000000
    17  H   -0.000000   0.000000  -0.000000   0.000000   0.000000  -0.000000
    18  H   -0.000004  -0.000000   0.000000   0.000000  -0.000000   0.000000
    19  H    0.000249  -0.000004  -0.000000   0.000000  -0.000000   0.000000
    20  H   -0.009323   0.000546  -0.000004  -0.000000   0.000000   0.000000
    21  H   -0.047822  -0.005261   0.000247  -0.000004  -0.000000   0.000000
    22  H    0.380961  -0.052837  -0.009331   0.000546  -0.000004  -0.000000
    23  H   -0.052669   0.380840  -0.047816  -0.005256   0.000245  -0.000004
    24  H   -0.005300  -0.047990   0.380983  -0.053003  -0.009264   0.000537
    25  H    0.000538  -0.009258  -0.052625   0.381061  -0.047957  -0.005214
    26  H   -0.000004   0.000254  -0.005267  -0.048075   0.381369  -0.053630
    27  H   -0.000000  -0.000003   0.000547  -0.009551  -0.050998   0.379494
    28  H    0.000000  -0.000000  -0.000005   0.000270  -0.005762  -0.047491
    29  H    0.000000   0.000000  -0.000000  -0.000000   0.000563  -0.012735
    30  H   -0.000000   0.000000  -0.000000   0.000003  -0.000223   0.004039
              13         14         15         16         17         18
     1  C    0.000000   0.000000   0.369509   0.382765  -0.050975  -0.005178
     2  C    0.000000   0.000000  -0.020445  -0.035921   0.381956  -0.046719
     3  C   -0.000000   0.000000   0.004031  -0.012744  -0.047458   0.379546
     4  C    0.000000  -0.000000  -0.000224   0.000562  -0.005753  -0.051066
     5  C    0.000000   0.000000   0.000003  -0.000000   0.000268  -0.009582
     6  C    0.000000   0.000000  -0.000000  -0.000000  -0.000005   0.000552
     7  C   -0.000000  -0.000000   0.000000   0.000000  -0.000000  -0.000004
     8  C    0.000002  -0.000000  -0.000000   0.000000   0.000000  -0.000000
     9  C   -0.000268   0.000005   0.000000  -0.000000  -0.000000   0.000000
    10  C    0.004051  -0.000277   0.000000   0.000000   0.000000   0.000000
    11  C   -0.019882   0.002690   0.000000  -0.000000   0.000000  -0.000000
    12  C    0.420975  -0.031498   0.000000   0.000000  -0.000000   0.000000
    13  C    4.739880   0.618769   0.000000   0.000000   0.000000  -0.000000
    14  C    0.618769   4.965619   0.000000   0.000000   0.000000   0.000000
    15  H    0.000000   0.000000   0.602038  -0.042381  -0.008087   0.000026
    16  H    0.000000   0.000000  -0.042381   0.601486   0.005978   0.004594
    17  H    0.000000   0.000000  -0.008087   0.005978   0.631687   0.004341
    18  H   -0.000000   0.000000   0.000026   0.004594   0.004341   0.631623
    19  H    0.000000  -0.000000  -0.000008   0.000014   0.004177   0.006056
    20  H   -0.000000   0.000000   0.000000   0.000001   0.000005   0.004068
    21  H   -0.000000  -0.000000  -0.000000  -0.000000   0.000001   0.000014
    22  H    0.000000   0.000000   0.000000  -0.000000  -0.000000   0.000001
    23  H   -0.000000   0.000000  -0.000000   0.000000  -0.000000  -0.000000
    24  H   -0.000004   0.000000   0.000000   0.000000   0.000000  -0.000000
    25  H    0.000235  -0.000003  -0.000000   0.000000   0.000000   0.000000
    26  H   -0.009094   0.000489   0.000000   0.000000   0.000000   0.000000
    27  H   -0.046668  -0.005151   0.000000   0.000000   0.000000   0.000000
    28  H    0.381956  -0.050996   0.000000   0.000000   0.000000   0.000000
    29  H   -0.035903   0.382760   0.000000   0.000000   0.000000   0.000000
    30  H   -0.020423   0.369489   0.000000   0.000000   0.000000   0.000000
              19         20         21         22         23         24
     1  C    0.000484  -0.000003   0.000000   0.000000   0.000000  -0.000000
     2  C   -0.009036   0.000240  -0.000003  -0.000000   0.000000  -0.000000
     3  C   -0.053540  -0.005252   0.000528  -0.000004  -0.000000   0.000000
     4  C    0.381319  -0.048087  -0.009180   0.000252  -0.000004  -0.000000
     5  C   -0.047963   0.381162  -0.052856  -0.005301   0.000536  -0.000004
     6  C   -0.005243  -0.052762   0.380882  -0.047993  -0.009245   0.000254
     7  C    0.000249  -0.009323  -0.047822   0.380961  -0.052669  -0.005300
     8  C   -0.000004   0.000546  -0.005261  -0.052837   0.380840  -0.047990
     9  C   -0.000000  -0.000004   0.000247  -0.009331  -0.047816   0.380983
    10  C    0.000000  -0.000000  -0.000004   0.000546  -0.005256  -0.053003
    11  C   -0.000000   0.000000  -0.000000  -0.000004   0.000245  -0.009264
    12  C    0.000000   0.000000   0.000000  -0.000000  -0.000004   0.000537
    13  C    0.000000  -0.000000  -0.000000   0.000000  -0.000000  -0.000004
    14  C   -0.000000   0.000000  -0.000000   0.000000   0.000000   0.000000
    15  H   -0.000008   0.000000  -0.000000   0.000000  -0.000000   0.000000
    16  H    0.000014   0.000001  -0.000000  -0.000000   0.000000   0.000000
    17  H    0.004177   0.000005   0.000001  -0.000000  -0.000000   0.000000
    18  H    0.006056   0.004068   0.000014   0.000001  -0.000000  -0.000000
    19  H    0.634015   0.004272   0.004046   0.000005   0.000001  -0.000000
    20  H    0.004272   0.634295   0.006063   0.004075   0.000014   0.000001
    21  H    0.004046   0.006063   0.634562   0.004273   0.004031   0.000005
    22  H    0.000005   0.004075   0.004273   0.634860   0.006070   0.004081
    23  H    0.000001   0.000014   0.004031   0.006070   0.634526   0.004270
    24  H   -0.000000   0.000001   0.000005   0.004081   0.004270   0.634923
    25  H   -0.000000  -0.000000   0.000001   0.000014   0.004029   0.006068
    26  H    0.000000  -0.000000  -0.000000   0.000001   0.000005   0.004086
    27  H    0.000000   0.000000  -0.000000  -0.000000   0.000001   0.000014
    28  H    0.000000   0.000000   0.000000  -0.000000  -0.000000   0.000001
    29  H    0.000000   0.000000   0.000000   0.000000  -0.000000  -0.000000
    30  H    0.000000  -0.000000   0.000000  -0.000000   0.000000  -0.000000
              25         26         27         28         29         30
     1  C    0.000000  -0.000000   0.000000   0.000000   0.000000   0.000000
     2  C   -0.000000   0.000000  -0.000000   0.000000   0.000000   0.000000
     3  C    0.000000   0.000000   0.000000  -0.000000   0.000000   0.000000
     4  C    0.000000  -0.000000  -0.000000   0.000000  -0.000000   0.000000
     5  C   -0.000000   0.000000   0.000000   0.000000   0.000000   0.000000
     6  C   -0.000004  -0.000000   0.000000  -0.000000  -0.000000   0.000000
     7  C    0.000538  -0.000004  -0.000000   0.000000   0.000000  -0.000000
     8  C   -0.009258   0.000254  -0.000003  -0.000000   0.000000   0.000000
     9  C   -0.052625  -0.005267   0.000547  -0.000005  -0.000000  -0.000000
    10  C    0.381061  -0.048075  -0.009551   0.000270  -0.000000   0.000003
    11  C   -0.047957   0.381369  -0.050998  -0.005762   0.000563  -0.000223
    12  C   -0.005214  -0.053630   0.379494  -0.047491  -0.012735   0.004039
    13  C    0.000235  -0.009094  -0.046668   0.381956  -0.035903  -0.020423
    14  C   -0.000003   0.000489  -0.005151  -0.050996   0.382760   0.369489
    15  H   -0.000000   0.000000   0.000000   0.000000   0.000000   0.000000
    16  H    0.000000   0.000000   0.000000   0.000000   0.000000   0.000000
    17  H    0.000000   0.000000   0.000000   0.000000   0.000000   0.000000
    18  H    0.000000   0.000000   0.000000   0.000000   0.000000   0.000000
    19  H   -0.000000   0.000000   0.000000   0.000000   0.000000   0.000000
    20  H   -0.000000  -0.000000   0.000000   0.000000   0.000000  -0.000000
    21  H    0.000001  -0.000000  -0.000000   0.000000   0.000000   0.000000
    22  H    0.000014   0.000001  -0.000000  -0.000000   0.000000  -0.000000
    23  H    0.004029   0.000005   0.000001  -0.000000  -0.000000   0.000000
    24  H    0.006068   0.004086   0.000014   0.000001  -0.000000  -0.000000
    25  H    0.634087   0.004267   0.004036   0.000005   0.000001   0.000000
    26  H    0.004267   0.634300   0.006063   0.004201   0.000014  -0.000008
    27  H    0.004036   0.006063   0.631588   0.004335   0.004575   0.000025
    28  H    0.000005   0.004201   0.004335   0.631844   0.005983  -0.008112
    29  H    0.000001   0.000014   0.004575   0.005983   0.601563  -0.042390
    30  H    0.000000  -0.000008   0.000025  -0.008112  -0.042390   0.602163
 Mulliken charges:
               1
     1  C   -0.251780
     2  C   -0.033574
     3  C   -0.077766
     4  C   -0.076610
     5  C   -0.080721
     6  C   -0.078834
     7  C   -0.079780
     8  C   -0.079572
     9  C   -0.079075
    10  C   -0.080607
    11  C   -0.076818
    12  C   -0.077760
    13  C   -0.033625
    14  C   -0.251895
    15  H    0.095538
    16  H    0.095646
    17  H    0.083866
    18  H    0.081729
    19  H    0.081156
    20  H    0.080687
    21  H    0.080474
    22  H    0.080331
    23  H    0.080426
    24  H    0.080342
    25  H    0.080719
    26  H    0.081027
    27  H    0.081693
    28  H    0.083772
    29  H    0.095571
    30  H    0.095439
 Sum of Mulliken charges =  -0.00000
 Mulliken charges with hydrogens summed into heavy atoms:
               1
     1  C   -0.060596
     2  C    0.050292
     3  C    0.003963
     4  C    0.004546
     5  C   -0.000033
     6  C    0.001639
     7  C    0.000551
     8  C    0.000854
     9  C    0.001267
    10  C    0.000112
    11  C    0.004209
    12  C    0.003932
    13  C    0.050147
    14  C   -0.060884
 Electronic spatial extent (au):  <R**2>=           9420.0687
 Charge=             -0.0000 electrons
 Dipole moment (field-independent basis, Debye):
    X=              0.0218    Y=              0.0034    Z=              0.0007  Tot=              0.0221
 Quadrupole moment (field-independent basis, Debye-Ang):
   XX=            -81.0403   YY=            -74.1513   ZZ=            -92.2605
   XY=              0.9890   XZ=             -0.0004   YZ=              0.0011
 Traceless Quadrupole moment (field-independent basis, Debye-Ang):
   XX=              1.4437   YY=              8.3327   ZZ=             -9.7765
   XY=              0.9890   XZ=             -0.0004   YZ=              0.0011
 Octapole moment (field-independent basis, Debye-Ang**2):
  XXX=              1.2364  YYY=              0.0433  ZZZ=             -0.0026  XYY=             -0.0384
  XXY=              0.2374  XXZ=              0.1197  XZZ=              0.0174  YZZ=              0.0071
  YYZ=             -0.0004  XYZ=             -0.0435
 Hexadecapole moment (field-independent basis, Debye-Ang**3):
 XXXX=         -12209.2403 YYYY=           -236.5961 ZZZZ=            -95.6451 XXXY=             90.3880
 XXXZ=             -0.0521 YYYX=             -0.3299 YYYZ=              0.0022 ZZZX=              0.0004
 ZZZY=              0.0010 XXYY=          -1959.2488 XXZZ=          -2391.7778 YYZZ=            -62.3114
 XXYZ=              0.0357 YYXZ=              0.0003 ZZXY=              0.5081
 N-N= 6.640808826821D+02 E-N=-2.584092032909D+03  KE= 5.376566877122D+02
 Calling FoFJK, ICntrl=      2127 FMM=F ISym2X=0 I1Cent= 0 IOpClX= 0 NMat=1 NMatS=1 NMatT=0.
 ***** Axes restored to original set *****
 -------------------------------------------------------------------
 Center     Atomic                   Forces (Hartrees/Bohr)
 Number     Number              X              Y              Z
 -------------------------------------------------------------------
      1        6          -0.008326714    0.004074303   -0.000210640
      2        6           0.010643262   -0.022469671    0.001378959
      3        6          -0.021089034    0.023817025   -0.001400221
      4        6           0.024459413   -0.025853077    0.001509191
      5        6          -0.026464691    0.025120263   -0.001445894
      6        6           0.027080586   -0.025718908    0.001477817
      7        6          -0.027546051    0.025577121   -0.001459929
      8        6           0.027455626   -0.025627110    0.001460301
      9        6          -0.027023316    0.025853832   -0.001472411
     10        6           0.026258927   -0.025334657    0.001441642
     11        6          -0.024260789    0.026107549   -0.001504472
     12        6           0.020833605   -0.024076074    0.001399199
     13        6          -0.010393724    0.022615200   -0.001390818
     14        6           0.008323611   -0.004196326    0.000203863
     15        1          -0.002743777   -0.003513139    0.000242772
     16        1          -0.002388776    0.000497563   -0.000016325
     17        1           0.005355077    0.000222128   -0.000046496
     18        1          -0.003394256    0.000575907   -0.000014028
     19        1           0.003180048   -0.000412173    0.000007615
     20        1          -0.003181526    0.000483146   -0.000007588
     21        1           0.003195553   -0.000445792    0.000009245
     22        1          -0.003198686    0.000466687   -0.000004557
     23        1           0.003205521   -0.000479916    0.000010273
     24        1          -0.003209436    0.000458673   -0.000002618
     25        1           0.003206223   -0.000509861    0.000010543
     26        1          -0.003204800    0.000456719   -0.000001939
     27        1           0.003421208   -0.000600515    0.000012868
     28        1          -0.005381024   -0.000117068    0.000054202
     29        1           0.002400273   -0.000484946    0.000012743
     30        1           0.002787670    0.003513115   -0.000253297
 -------------------------------------------------------------------
 Cartesian Forces:  Max     0.027546051 RMS     0.012690850

 GradGradGradGradGradGradGradGradGradGradGradGradGradGradGradGradGradGrad
 Berny optimization.
 FormGI is forming the generalized inverse of G from B-inverse, IUseBI=4.
 Internal  Forces:  Max     0.021265261 RMS     0.007660541
 Search for a local minimum.
 Step number   1 out of a maximum of  133
 All quantities printed in internal units (Hartrees-Bohrs-Radians)
 Mixed Optimization -- RFO/linear search
 Second derivative matrix not updated -- first step.
 ITU=  0
     Eigenvalues ---    0.01059   0.01059   0.01060   0.01061   0.01065
     Eigenvalues ---    0.01067   0.01978   0.01978   0.01978   0.01978
     Eigenvalues ---    0.01978   0.01979   0.01979   0.01979   0.01982
     Eigenvalues ---    0.01983   0.01998   0.01999   0.02887   0.02887
     Eigenvalues ---    0.02888   0.02888   0.02889   0.02948   0.02948
     Eigenvalues ---    0.02949   0.02949   0.16000   0.16000   0.16000
     Eigenvalues ---    0.16000   0.16000   0.16000   0.16000   0.16000
     Eigenvalues ---    0.16000   0.16000   0.16000   0.16000   0.16000
     Eigenvalues ---    0.16000   0.16000   0.16000   0.22000   0.22000
     Eigenvalues ---    0.22000   0.22000   0.22000   0.22000   0.22000
     Eigenvalues ---    0.22000   0.22000   0.22000   0.22000   0.22000
     Eigenvalues ---    0.34815   0.34822   0.34829   0.34832   0.34872
     Eigenvalues ---    0.34890   0.35077   0.35078   0.35080   0.35081
     Eigenvalues ---    0.35081   0.35082   0.35082   0.35084   0.35084
     Eigenvalues ---    0.35084   0.35189   0.35195   0.35268   0.35276
     Eigenvalues ---    0.35369   0.35374   0.57283   0.57290   0.57293
     Eigenvalues ---    0.57302   0.57319   0.58330   0.58350
 RFO step:  Lambda=-2.22742533D-02 EMin= 1.05872296D-02
 Linear search not attempted -- first point.
 Iteration  1 RMS(Cart)=  0.06786094 RMS(Int)=  0.00051044
 Iteration  2 RMS(Cart)=  0.00154143 RMS(Int)=  0.00000057
 Iteration  3 RMS(Cart)=  0.00000022 RMS(Int)=  0.00000057
 Variable       Old X    -DE/DX   Delta X   Delta X   Delta X     New X
                                 (Linear)    (Quad)   (Total)
    R1        2.52287   0.01181   0.00000   0.01951   0.01951   2.54237
    R2        2.05072   0.00019   0.00000   0.00049   0.00049   2.05122
    R3        2.05242  -0.00022   0.00000  -0.00058  -0.00058   2.05185
    R4        2.79154  -0.01410   0.00000  -0.03798  -0.03798   2.75356
    R5        2.05359   0.00064   0.00000   0.00172   0.00172   2.05531
    R6        2.53151   0.01862   0.00000   0.03128   0.03128   2.56279
    R7        2.05550  -0.00027   0.00000  -0.00071  -0.00071   2.05479
    R8        2.79248  -0.01778   0.00000  -0.04798  -0.04798   2.74450
    R9        2.05541  -0.00012   0.00000  -0.00033  -0.00033   2.05508
   R10        2.53158   0.02075   0.00000   0.03486   0.03486   2.56644
   R11        2.05545  -0.00019   0.00000  -0.00050  -0.00050   2.05494
   R12        2.79254  -0.01867   0.00000  -0.05037  -0.05037   2.74217
   R13        2.05539  -0.00015   0.00000  -0.00039  -0.00039   2.05500
   R14        2.53149   0.02127   0.00000   0.03573   0.03573   2.56722
   R15        2.05544  -0.00016   0.00000  -0.00043  -0.00043   2.05501
   R16        2.79266  -0.01869   0.00000  -0.05045  -0.05045   2.74221
   R17        2.05539  -0.00017   0.00000  -0.00045  -0.00045   2.05494
   R18        2.53141   0.02083   0.00000   0.03499   0.03499   2.56641
   R19        2.05544  -0.00014   0.00000  -0.00038  -0.00038   2.05506
   R20        2.79276  -0.01784   0.00000  -0.04816  -0.04816   2.74460
   R21        2.05539  -0.00019   0.00000  -0.00050  -0.00050   2.05489
   R22        2.53127   0.01874   0.00000   0.03147   0.03147   2.56275
   R23        2.05548  -0.00013   0.00000  -0.00035  -0.00035   2.05513
   R24        2.79183  -0.01416   0.00000  -0.03817  -0.03817   2.75366
   R25        2.05542  -0.00025   0.00000  -0.00066  -0.00066   2.05476
   R26        2.52270   0.01191   0.00000   0.01965   0.01965   2.54236
   R27        2.05370   0.00061   0.00000   0.00164   0.00164   2.05533
   R28        2.05229  -0.00017   0.00000  -0.00045  -0.00045   2.05184
   R29        2.05080   0.00016   0.00000   0.00042   0.00042   2.05122
    A1        2.09400   0.00444   0.00000   0.02433   0.02433   2.11833
    A2        2.11470   0.00028   0.00000   0.00152   0.00152   2.11622
    A3        2.07449  -0.00471   0.00000  -0.02585  -0.02585   2.04864
    A4        2.11363   0.01186   0.00000   0.04897   0.04897   2.16260
    A5        2.07643  -0.00047   0.00000   0.00549   0.00549   2.08192
    A6        2.09313  -0.01140   0.00000  -0.05446  -0.05446   2.03867
    A7        2.11115   0.01206   0.00000   0.04980   0.04980   2.16095
    A8        2.08099  -0.00956   0.00000  -0.04425  -0.04425   2.03674
    A9        2.09104  -0.00250   0.00000  -0.00554  -0.00554   2.08549
   A10        2.10984   0.01282   0.00000   0.05292   0.05292   2.16276
   A11        2.09092  -0.00312   0.00000  -0.00840  -0.00840   2.08253
   A12        2.08243  -0.00970   0.00000  -0.04453  -0.04453   2.03790
   A13        2.11221   0.01223   0.00000   0.05048   0.05048   2.16268
   A14        2.08092  -0.00942   0.00000  -0.04335  -0.04335   2.03757
   A15        2.09006  -0.00281   0.00000  -0.00713  -0.00713   2.08294
   A16        2.10923   0.01283   0.00000   0.05295   0.05295   2.16218
   A17        2.09131  -0.00310   0.00000  -0.00830  -0.00830   2.08301
   A18        2.08265  -0.00973   0.00000  -0.04465  -0.04465   2.03800
   A19        2.11258   0.01230   0.00000   0.05075   0.05075   2.16333
   A20        2.08075  -0.00947   0.00000  -0.04358  -0.04358   2.03718
   A21        2.08985  -0.00283   0.00000  -0.00717  -0.00717   2.08268
   A22        2.10907   0.01280   0.00000   0.05284   0.05284   2.16191
   A23        2.09133  -0.00307   0.00000  -0.00817  -0.00817   2.08316
   A24        2.08279  -0.00973   0.00000  -0.04467  -0.04467   2.03812
   A25        2.11246   0.01237   0.00000   0.05106   0.05106   2.16352
   A26        2.08087  -0.00951   0.00000  -0.04379  -0.04379   2.03708
   A27        2.08986  -0.00286   0.00000  -0.00727  -0.00727   2.08259
   A28        2.10942   0.01264   0.00000   0.05216   0.05216   2.16158
   A29        2.09115  -0.00299   0.00000  -0.00780  -0.00780   2.08334
   A30        2.08261  -0.00965   0.00000  -0.04435  -0.04435   2.03826
   A31        2.11193   0.01254   0.00000   0.05175   0.05175   2.16368
   A32        2.08135  -0.00959   0.00000  -0.04411  -0.04411   2.03724
   A33        2.08991  -0.00294   0.00000  -0.00764  -0.00764   2.08227
   A34        2.10974   0.01227   0.00000   0.05066   0.05066   2.16039
   A35        2.09152  -0.00258   0.00000  -0.00579  -0.00579   2.08573
   A36        2.08192  -0.00970   0.00000  -0.04486  -0.04486   2.03706
   A37        2.11433   0.01179   0.00000   0.04865   0.04865   2.16298
   A38        2.09283  -0.01138   0.00000  -0.05445  -0.05445   2.03837
   A39        2.07603  -0.00040   0.00000   0.00580   0.00580   2.08183
   A40        2.11478   0.00027   0.00000   0.00150   0.00150   2.11629
   A41        2.09368   0.00447   0.00000   0.02450   0.02450   2.11819
   A42        2.07472  -0.00474   0.00000  -0.02601  -0.02601   2.04871
    D1       -3.14155  -0.00000   0.00000  -0.00002  -0.00002  -3.14157
    D2       -0.00001   0.00000   0.00000   0.00001   0.00001  -0.00000
    D3        0.00001   0.00000   0.00000   0.00000   0.00000   0.00002
    D4        3.14155   0.00000   0.00000   0.00003   0.00003   3.14158
    D5        3.14139   0.00000   0.00000   0.00007   0.00007   3.14146
    D6       -0.00009   0.00000   0.00000   0.00001   0.00001  -0.00009
    D7       -0.00015   0.00000   0.00000   0.00004   0.00004  -0.00011
    D8        3.14155  -0.00000   0.00000  -0.00002  -0.00002   3.14153
    D9       -3.14143  -0.00000   0.00000  -0.00007  -0.00007  -3.14150
   D10        0.00001   0.00000   0.00000   0.00001   0.00001   0.00002
   D11        0.00006  -0.00000   0.00000  -0.00001  -0.00001   0.00005
   D12        3.14150   0.00000   0.00000   0.00007   0.00007   3.14157
   D13        3.14111   0.00001   0.00000   0.00017   0.00017   3.14128
   D14       -0.00027   0.00000   0.00000   0.00005   0.00005  -0.00022
   D15       -0.00033   0.00000   0.00000   0.00009   0.00009  -0.00024
   D16        3.14148  -0.00000   0.00000  -0.00004  -0.00004   3.14144
   D17       -3.14128  -0.00001   0.00000  -0.00013  -0.00014  -3.14142
   D18        0.00005   0.00000   0.00000   0.00001   0.00001   0.00006
   D19        0.00010  -0.00000   0.00000  -0.00001  -0.00001   0.00008
   D20        3.14143   0.00001   0.00000   0.00013   0.00013   3.14156
   D21        3.14087   0.00001   0.00000   0.00026   0.00026   3.14112
   D22       -0.00044   0.00000   0.00000   0.00009   0.00009  -0.00034
   D23       -0.00047   0.00000   0.00000   0.00012   0.00012  -0.00035
   D24        3.14141  -0.00000   0.00000  -0.00005  -0.00005   3.14136
   D25       -3.14120  -0.00001   0.00000  -0.00017  -0.00017  -3.14137
   D26        0.00009  -0.00000   0.00000  -0.00000  -0.00000   0.00009
   D27        0.00010  -0.00000   0.00000  -0.00001  -0.00001   0.00009
   D28        3.14139   0.00001   0.00000   0.00016   0.00016   3.14155
   D29        3.14080   0.00001   0.00000   0.00028   0.00028   3.14108
   D30       -0.00050   0.00000   0.00000   0.00012   0.00012  -0.00038
   D31       -0.00049   0.00000   0.00000   0.00011   0.00011  -0.00038
   D32        3.14139  -0.00000   0.00000  -0.00005  -0.00005   3.14134
   D33       -3.14123  -0.00001   0.00000  -0.00015  -0.00016  -3.14139
   D34        0.00010  -0.00000   0.00000  -0.00001  -0.00001   0.00009
   D35        0.00007   0.00000   0.00000   0.00000   0.00000   0.00007
   D36        3.14141   0.00001   0.00000   0.00015   0.00015   3.14156
   D37        3.14098   0.00001   0.00000   0.00022   0.00022   3.14119
   D38       -0.00042   0.00000   0.00000   0.00011   0.00011  -0.00031
   D39       -0.00036   0.00000   0.00000   0.00007   0.00007  -0.00029
   D40        3.14143  -0.00000   0.00000  -0.00004  -0.00004   3.14139
   D41       -3.14138  -0.00000   0.00000  -0.00009  -0.00009  -3.14147
   D42        0.00008  -0.00000   0.00000  -0.00001  -0.00001   0.00006
   D43        0.00002   0.00000   0.00000   0.00002   0.00002   0.00003
   D44        3.14147   0.00000   0.00000   0.00009   0.00010   3.14157
   D45        3.14131   0.00000   0.00000   0.00010   0.00010   3.14140
   D46       -0.00021   0.00000   0.00000   0.00006   0.00006  -0.00016
   D47       -0.00015   0.00000   0.00000   0.00002   0.00002  -0.00013
   D48        3.14152  -0.00000   0.00000  -0.00002  -0.00002   3.14150
   D49        0.00002   0.00000   0.00000   0.00001   0.00001   0.00002
   D50       -3.14154  -0.00000   0.00000  -0.00003  -0.00003  -3.14156
   D51        3.14154   0.00000   0.00000   0.00004   0.00004   3.14158
   D52       -0.00002   0.00000   0.00000   0.00001   0.00001  -0.00000
         Item               Value     Threshold  Converged?
 Maximum Force            0.021265     0.000450     NO 
 RMS     Force            0.007661     0.000300     NO 
 Maximum Displacement     0.259684     0.001800     NO 
 RMS     Displacement     0.066570     0.001200     NO 
 Predicted change in Energy=-1.201733D-02
 GradGradGradGradGradGradGradGradGradGradGradGradGradGradGradGradGradGrad

                          Input orientation:                          
 ---------------------------------------------------------------------
 Center     Atomic      Atomic             Coordinates (Angstroms)
 Number     Number       Type             X           Y           Z
 ---------------------------------------------------------------------
      1          6           0       -2.379570    1.160904    0.010945
      2          6           0       -1.135647    1.671765   -0.030142
      3          6           0        0.076545    0.864387    0.013870
      4          6           0        1.329602    1.381407   -0.027820
      5          6           0        2.539260    0.578861    0.015781
      6          6           0        3.794057    1.096691   -0.026328
      7          6           0        5.002279    0.294202    0.017065
      8          6           0        6.258052    0.810713   -0.025495
      9          6           0        7.465148    0.006484    0.017750
     10          6           0        8.721353    0.520772   -0.025243
     11          6           0        9.927935   -0.286511    0.017960
     12          6           0       11.183423    0.224390   -0.025257
     13          6           0       12.391319   -0.589525    0.018217
     14          6           0       13.638126   -0.085920   -0.024667
     15          1           0       -3.255033    1.801622   -0.024572
     16          1           0       -2.546819    0.090363    0.081001
     17          1           0       -1.005066    2.749234   -0.100411
     18          1           0       -0.056082   -0.212549    0.084178
     19          1           0        1.459047    2.458886   -0.098161
     20          1           0        2.409469   -0.498491    0.086264
     21          1           0        3.923930    2.174062   -0.096845
     22          1           0        4.871516   -0.783051    0.087803
     23          1           0        6.389329    1.887866   -0.096268
     24          1           0        7.332742   -1.070580    0.088772
     25          1           0        8.854561    1.597641   -0.096293
     26          1           0        9.793606   -1.363356    0.089214
     27          1           0       11.321456    1.300569   -0.096521
     28          1           0       12.254667   -1.666179    0.089595
     29          1           0       13.811573    0.983555   -0.095882
     30          1           0       14.509808   -0.731795    0.010500
 ---------------------------------------------------------------------
                    Distance matrix (angstroms):
                    1          2          3          4          5
     1  C    0.000000
     2  C    1.345366   0.000000
     3  C    2.473950   1.457122   0.000000
     4  C    3.715922   2.482290   1.356171   0.000000
     5  C    4.953148   3.834252   2.479212   1.452326   0.000000
     6  C    6.174074   4.963135   3.724980   2.480848   1.358101
     7  C    7.432557   6.290790   4.958626   3.830481   2.479415
     8  C    8.644794   7.443670   6.181865   4.961383   3.726242
     9  C    9.912174   8.760658   7.438243   6.287878   4.959032
    10  C   11.119423   9.923974   8.651723   7.441685   6.182502
    11  C   12.392326  11.235658   9.918390   8.758731   7.439180
    12  C   13.595335  12.403806  11.125370   9.921516   8.651526
    13  C   14.874247  13.714758  12.400304  11.236026   9.921099
    14  C   16.066189  14.877966  13.594891  12.395678  11.118831
    15  H    1.085457   2.123368   3.461113   4.603854   5.922044
    16  H    1.085790   2.122402   2.735993   4.087209   5.109900
    17  H    2.103438   1.087625   2.176141   2.706824   4.157675
    18  H    2.700062   2.174665   1.087347   2.115032   2.714186
    19  H    4.053596   2.712310   2.113360   1.087504   2.171252
    20  H    5.068940   4.158293   2.702815   2.170977   1.087429
    21  H    6.385312   5.084886   4.065695   2.713596   2.115339
    22  H    7.507537   6.490458   5.070628   4.152518   2.701743
    23  H    8.799634   7.528369   6.396162   5.085472   4.068056
    24  H    9.965670   8.902146   7.510133   6.485640   5.069858
    25  H   11.243128   9.990702   8.809277   7.528376   6.397929
    26  H   12.432386  11.343490   9.969442   8.898695   7.510202
    27  H   13.702159  12.462809  11.253909   9.992417   8.812516
    28  H   14.905014  13.800605  12.438494  11.342777   9.971699
    29  H   16.192466  14.963199  13.735983  12.488495  11.280128
    30  H   16.995099  15.829056  14.521256  13.348593  12.042088
                    6          7          8          9         10
     6  C    0.000000
     7  C    1.451093   0.000000
     8  C    2.480535   1.358514   0.000000
     9  C    3.829804   2.479618   1.451115   0.000000
    10  C    4.960839   3.726209   2.480306   1.358084   0.000000
    11  C    6.288057   4.959770   3.830644   2.480155   1.452381
    12  C    7.440674   6.181683   4.960147   3.724903   2.479845
    13  C    8.761177   7.441699   6.291228   4.962096   3.834488
    14  C    9.914850   8.644310   7.434342   6.173816   4.954062
    15  H    7.084251   8.393882   9.564554  10.869526  12.044684
    16  H    6.421131   7.552120   8.834931  10.012518  11.276890
    17  H    5.076216   6.490699   7.517736   8.903997   9.978723
    18  H    4.068156   5.084124   6.397451   7.524712   8.808694
    19  H    2.704257   4.153748   5.074662   6.488525   7.516827
    20  H    2.115270   2.712161   4.066706   5.081298   6.394624
    21  H    1.087459   2.170181   2.704059   4.153523   5.074817
    22  H    2.169648   1.087464   2.115515   2.712047   4.066199
    23  H    2.714090   2.115778   1.087429   2.170250   2.704132
    24  H    4.151217   2.701635   2.169626   1.087493   2.115097
    25  H    5.085719   4.068400   2.714061   2.115480   1.087401
    26  H    6.485350   5.070455   4.152093   2.702459   2.170890
    27  H    7.530486   6.399818   5.087540   4.069254   2.715456
    28  H    8.901056   7.513021   6.489039   5.073702   4.156951
    29  H   10.018395   8.836946   7.555826   6.422203   5.111702
    30  H   10.870696   9.562731   8.394767   7.083244   5.922534
                   11         12         13         14         15
    11  C    0.000000
    12  C    1.356148   0.000000
    13  C    2.481951   1.457176   0.000000
    14  C    3.715854   2.474239   1.345357   0.000000
    15  H   13.347388  14.524348  15.828069  16.998284   0.000000
    16  H   12.480605  13.731307  14.953734  16.186250   1.855026
    17  H   11.347258  12.447480  13.806684  14.915325   2.442554
    18  H    9.984511  11.248527  12.453283  13.695226   3.781799
    19  H    8.903524   9.978065  11.349931  12.442323   4.760249
    20  H    7.521764   8.804389   9.982498  11.236782   6.114686
    21  H    6.489659   7.517087   8.907712   9.973883   7.188981
    22  H    5.081221   6.392800   7.522615   8.795004   8.528421
    23  H    4.154840   5.074991   6.494187   7.513056   9.645014
    24  H    2.711974   4.064196   5.081889   6.382812  10.971024
    25  H    2.171455   2.704527   4.159985   5.071687  12.111524
    26  H    1.087528   2.113204   2.711452   4.052795  13.427472
    27  H    2.115142   1.087333   2.174909   2.700828  14.585276
    28  H    2.705974   2.176007   1.087636   2.103387  15.893063
    29  H    4.087624   2.736510   2.122432   1.085786  17.086350
    30  H    4.603465   3.461272   2.123275   1.085459  17.944610
                   16         17         18         19         20
    16  H    0.000000
    17  H    3.078881   0.000000
    18  H    2.509091   3.115574   0.000000
    19  H    4.657141   2.481161   3.076594   0.000000
    20  H    4.991149   4.716101   2.482077   3.111815   0.000000
    21  H    6.800296   4.962442   4.644262   2.481284   3.077281
    22  H    7.469578   6.859058   4.960515   4.710593   2.478438
    23  H    9.116863   7.444397   6.781418   4.963239   4.644061
    24  H    9.947541   9.173102   7.438478   6.855098   4.956401
    25  H   11.501947   9.926652   9.094444   7.445493   6.779846
    26  H   12.425757  11.556845   9.916689   9.171123   7.434614
    27  H   13.922111  12.411357  11.479135   9.930197   9.093599
    28  H   14.905351  13.976855  12.396273  11.558408   9.914203
    29  H   16.383713  14.921475  13.920306  12.440317  11.499461
    30  H   17.076576  15.900980  14.575328  13.435573  12.102825
                   21         22         23         24         25
    21  H    0.000000
    22  H    3.110712   0.000000
    23  H    2.481955   3.077570   0.000000
    24  H    4.709793   2.477964   3.110735   0.000000
    25  H    4.964210   4.643946   2.482256   3.077269   0.000000
    26  H    6.855730   4.956180   4.711045   2.478219   3.111868
    27  H    7.448918   6.780647   4.966970   4.643976   2.484718
    28  H    9.175150   7.435780   6.860610   4.957830   4.716757
    29  H    9.959055   9.114782   7.477130   6.799177   4.994904
    30  H   10.977994   9.638738   8.533241   7.185484   6.117148
                   26         27         28         29         30
    26  H    0.000000
    27  H    3.076576   0.000000
    28  H    2.479621   3.115624   0.000000
    29  H    4.656856   2.510215   3.078871   0.000000
    30  H    4.758952   3.782532   2.442333   1.855068   0.000000
 Stoichiometry    C14H16
 Framework group  C1[X(C14H16)]
 Deg. of freedom    84
 Full point group                 C1      NOp   1
 Largest Abelian subgroup         C1      NOp   1
 Largest concise Abelian subgroup C1      NOp   1
                         Standard orientation:                         
 ---------------------------------------------------------------------
 Center     Atomic      Atomic             Coordinates (Angstroms)
 Number     Number       Type             X           Y           Z
 ---------------------------------------------------------------------
      1          6           0        8.028551   -0.253389    0.002076
      2          6           0        6.847007    0.390009    0.001021
      3          6           0        5.554782   -0.283312    0.000540
      4          6           0        4.364821    0.367220   -0.000378
      5          6           0        3.075638   -0.301554   -0.000743
      6          6           0        1.884034    0.349995   -0.001309
      7          6           0        0.596284   -0.318862   -0.001459
      8          6           0       -0.596432    0.331513   -0.001497
      9          6           0       -1.883251   -0.339184   -0.001379
     10          6           0       -3.076637    0.309061   -0.000843
     11          6           0       -4.363274   -0.364717   -0.000482
     12          6           0       -5.556312    0.280105    0.000502
     13          6           0       -6.844971   -0.400129    0.001011
     14          6           0       -8.030167    0.236499    0.002197
     15          1           0        8.968032    0.290296    0.002420
     16          1           0        8.079323   -1.337990    0.002623
     17          1           0        6.833436    1.477550    0.000504
     18          1           0        5.570444   -1.370546    0.000998
     19          1           0        4.352381    1.454653   -0.000815
     20          1           0        3.088436   -1.388907   -0.000454
     21          1           0        1.871157    1.437379   -0.001566
     22          1           0        0.610058   -1.406239   -0.001423
     23          1           0       -0.610729    1.418848   -0.001495
     24          1           0       -1.867823   -1.426567   -0.001626
     25          1           0       -3.092883    1.396341   -0.000561
     26          1           0       -4.345909   -1.452106   -0.000962
     27          1           0       -5.577430    1.367233    0.001008
     28          1           0       -6.825277   -1.487587    0.000412
     29          1           0       -8.087215    1.320785    0.002831
     30          1           0       -8.966444   -0.312687    0.002565
 ---------------------------------------------------------------------
 Rotational constants (GHZ):          10.9372233           0.1073830           0.1063390
 Standard basis: 6-31G(d,p) (6D, 7F)
 There are   290 symmetry adapted cartesian basis functions of A   symmetry.
 There are   290 symmetry adapted basis functions of A   symmetry.
   290 basis functions,   504 primitive gaussians,   290 cartesian basis functions
    50 alpha electrons       50 beta electrons
       nuclear repulsion energy       660.3157880002 Hartrees.
 NAtoms=   30 NActive=   30 NUniq=   30 SFac= 1.00D+00 NAtFMM=   60 NAOKFM=F Big=F
 Integral buffers will be    131072 words long.
 Raffenetti 2 integral format.
 Two-electron integral symmetry is turned on.
 One-electron integrals computed using PRISM.
 NBasis=   290 RedAO= T EigKep=  1.33D-03  NBF=   290
 NBsUse=   290 1.00D-06 EigRej= -1.00D+00 NBFU=   290
 Initial guess from the checkpoint file:  "checkpoint.chk"
 B after Tr=     0.000000   -0.000000    0.000000
         Rot=    1.000000    0.000032   -0.000000   -0.000472 Ang=   0.05 deg.
 ExpMin= 1.61D-01 ExpMax= 3.05D+03 ExpMxC= 4.57D+02 IAcc=3 IRadAn=         5 AccDes= 0.00D+00
 Harris functional with IExCor=  402 and IRadAn=       5 diagonalized for initial guess.
 HarFok:  IExCor=  402 AccDes= 0.00D+00 IRadAn=         5 IDoV= 1 UseB2=F ITyADJ=14
 ICtDFT=  3500011 ScaDFX=  1.000000  1.000000  1.000000  1.000000
 FoFCou: FMM=F IPFlag=           0 FMFlag=      100000 FMFlg1=           0
         NFxFlg=           0 DoJE=T BraDBF=F KetDBF=T FulRan=T
         wScrn=  0.000000 ICntrl=       500 IOpCl=  0 I1Cent=   200000004 NGrid=           0
         NMat0=    1 NMatS0=      1 NMatT0=    0 NMatD0=    1 NMtDS0=    0 NMtDT0=    0
 Petite list used in FoFCou.
 Requested convergence on RMS density matrix=1.00D-08 within 128 cycles.
 Requested convergence on MAX density matrix=1.00D-06.
 Requested convergence on             energy=1.00D-06.
 No special actions if energy rises.
 Integral accuracy reduced to 1.0D-05 until final iterations.
[...]
 40597,0.00053445,-0.00005275,-0.00180152,0.00085011,-0.00017110,-0.003
 55048,-0.01634466,0.00127890,-0.02972630,-0.31976691,0.01837322,-0.000
 64501,-0.01143917,0.00105589,0.00215573,0.00084939,-0.00044623,-0.0002
 8297,0.00044935,-0.00003157,0.00002689,-0.00001242,0.00001567,-0.00003
 669,-0.00002621,0.00000278,0.00000891,0.00000156,-0.00000005,-0.000000
 60,0.00000230,-0.00000002,-0.00000107,-0.00001010,0.00000075,0.0000031
 9,0.00000279,0.00000004,-0.00000268,-0.00001181,0.00000115,0.00003699,
 0.00000743,-0.00000035,-0.00024296,0.00009664,0.00000391,0.00100473,0.
 00064479,-0.00003281,0.00244578,-0.00062472,0.00029627,0.03249494,0.34
 388780,-0.00000281,0.00000246,-0.00000369,0.00000021,-0.00000516,-0.00
 000330,0.00000031,0.00000494,-0.00001399,-0.00000257,-0.00000453,0.000
 02194,0.00000106,0.00000657,-0.00001585,-0.00002766,-0.00004904,-0.000
 23032,0.00009088,-0.00019450,-0.00197886,0.00021570,0.00106118,0.00291
 327,0.00209049,0.01836532,-0.04091208,0.00007939,0.00127462,0.00469149
 ,-0.00019150,-0.00041652,-0.00576354,0.00001834,-0.00003520,-0.0000672
 0,0.,0.00001534,0.00023126,0.00000222,0.00000245,0.00001241,-0.0000005
 6,0.00000002,0.00000181,0.00000006,-0.00000002,0.00000196,0.00000008,0
 .00000074,0.00000134,-0.00000015,0.00000007,0.00000375,0.00000015,0.00
 000115,0.00000549,-0.00000196,0.00000006,0.00000622,0.00001638,0.00000
 391,0.00012940,-0.00006119,-0.00001911,0.00025297,-0.00010007,0.000296
 29,0.00420056,-0.00238333,-0.02086362,0.02709483,0.00000551,-0.0000004
 0,-0.00000004,-0.00000748,0.00000271,0.00000003,0.00001290,-0.00000133
 ,-0.00000006,-0.00001736,0.00000104,-0.00000060,0.00004479,0.00000571,
 -0.00000045,-0.00001752,0.00007479,-0.00000321,-0.00006249,0.00021280,
 -0.00001407,0.00134807,-0.00190294,0.00007192,-0.00039414,-0.03076110,
 0.00203204,-0.06218917,-0.02901275,0.00204685,0.00501213,0.02636206,-0
 .00172398,0.00163637,0.00138282,-0.00011492,-0.00008154,-0.00010027,0.
 00000528,-0.00006709,-0.00009308,0.00000629,0.00000032,0.00000018,-0.0
 0000003,0.00000021,0.00000059,-0.00000002,-0.00000042,0.00000071,-0.00
 000003,0.00000142,0.00000143,-0.00000016,-0.00000352,0.00000284,-0.000
 00013,0.00001283,0.00000424,-0.00000023,-0.00005399,0.00003699,-0.0000
 0196,0.00013140,0.00023575,-0.00001370,-0.00029090,0.00100247,-0.00006
 101,-0.00465817,-0.00168660,0.00020789,0.06374522,-0.00000122,-0.00000
 879,0.00000035,0.00001296,0.00000666,0.00000086,-0.00003221,-0.0000143
 4,0.00000073,0.00004764,-0.00000611,-0.00000581,-0.00009709,-0.0000118
 8,0.00000369,0.00007832,-0.00003480,0.00001520,-0.00033198,0.00047015,
 -0.00003457,0.00216645,0.00083122,-0.00044154,-0.00065692,-0.01131530,
 0.00104921,-0.03013908,-0.32020962,0.01842793,-0.00362433,-0.01623049,
 0.00127122,-0.00173044,0.00080694,-0.00015922,0.00035376,0.00055583,-0
 .00005478,0.00010708,-0.00010065,0.00000363,0.00000114,0.00000010,-0.0
 0000017,0.00000011,0.00000121,0.00000009,-0.00000037,-0.00000005,0.000
 00011,0.00000136,0.00000194,-0.00000067,-0.00000110,0.00000183,0.00000
 013,0.00000424,0.00000310,0.00000100,-0.00001914,0.00000743,0.00000006
 ,0.00023581,0.00000067,0.00002089,-0.00088253,0.00064220,-0.00001856,-
 0.00167775,0.00032122,0.00056915,0.03294248,0.34415461,0.00000001,0.00
 000035,-0.00000350,-0.00000063,0.00000094,0.00002139,0.00000195,0.0000
 0051,-0.00000666,-0.00000362,-0.00000547,-0.00008998,0.00000622,0.0000
 0295,0.00003396,-0.00000343,0.00001522,0.00020742,0.00002124,-0.000038
 53,-0.00009796,-0.00019191,-0.00041197,-0.00570822,0.00008025,0.001267
 81,0.00471133,0.00211989,0.01841974,-0.04056345,0.00022014,0.00105347,
 0.00290088,0.00008694,-0.00018182,-0.00183147,-0.00002416,-0.00005149,
 -0.00024601,-0.00000669,0.00000509,-0.00003290,-0.00000009,-0.00000016
 ,-0.00000241,0.00000001,0.00000009,0.00000267,0.00000004,0.00000010,0.
 00000160,-0.00000016,-0.00000067,-0.00000821,0.00000012,0.00000011,0.0
 0000377,-0.00000023,0.00000100,0.00001887,0.00000168,-0.00000035,0.000
 00621,-0.00001371,0.00002089,0.00034802,0.00006120,-0.00003226,0.00025
 866,0.00020732,0.00056920,0.00887334,-0.00241435,-0.02090634,0.0267587
 8,-0.00000567,0.00000118,-0.00000005,0.00000706,-0.00000517,0.00000028
 ,-0.00001279,0.00000466,-0.00000022,0.00001846,-0.00000948,0.00000045,
 -0.00002831,0.00000788,-0.00000040,0.00006199,-0.00002219,0.00000114,-
 0.00006665,-0.00007966,0.00000554,-0.00006011,-0.00010126,0.00000537,0
 .00160017,0.00142342,-0.00011764,0.00493083,0.02636816,-0.00172419,-0.
 06231167,-0.02940697,0.00206821,-0.00056454,-0.03086189,0.00204030,0.0
 0129943,-0.00206573,0.00008019,-0.00003596,0.00028630,-0.00001763,-0.0
 0000025,-0.00000031,0.00000003,-0.00000014,-0.00000016,0.00000002,0.00
 000008,0.00000025,0.,-0.00000055,-0.00000045,0.00000005,0.00000044,-0.
 00000001,0.,-0.00000352,-0.00000111,0.00000012,0.00000872,-0.00000268,
 0.00000015,-0.00005379,-0.00001919,0.00000168,0.00004291,-0.00024279,0
 .00001633,-0.00029318,-0.00088369,0.00006119,-0.00382467,0.00243809,-0
 .00010080,0.06411455,0.00003626,-0.00003053,0.00000156,-0.00000981,0.0
 0006015,-0.00000383,0.00000550,-0.00006231,0.00000394,0.00001237,0.000
 06953,-0.00000487,-0.00001448,-0.00008038,0.00000444,0.00004169,0.0000
 8848,-0.00000473,-0.00001452,-0.00010128,0.00000567,0.00041153,0.00053
 306,-0.00005213,-0.00180083,0.00085307,-0.00016489,-0.00360974,-0.0164
 0241,0.00127878,-0.03059817,-0.31917190,0.01831880,-0.00077144,-0.0114
 7720,0.00106476,0.00217816,0.00084455,-0.00046622,-0.00017965,0.000438
 94,-0.00002117,0.00000714,0.00000077,-0.00000006,-0.00000090,0.0000014
 1,0.,-0.00000064,-0.00000847,0.00000062,0.00000097,0.00000063,0.000000
 06,0.,-0.00001020,0.00000074,0.00000284,0.00000183,0.00000011,-0.00000
 250,-0.00001181,0.00000115,0.00003730,0.00000677,-0.00000028,-0.000243
 66,0.00009733,0.00000351,0.00100847,0.00064857,-0.00003357,0.00245120,
 -0.00063411,0.00028672,0.03346353,0.34335932,-0.00000233,0.00000182,-0
 .00000248,0.00000058,-0.00000387,0.00000020,-0.00000027,0.00000395,-0.
 00000114,-0.00000097,-0.00000471,-0.00000385,0.00000105,0.00000428,-0.
 00001383,-0.00000301,-0.00000426,0.00002054,0.00000131,0.00000614,-0.0
 0001588,-0.00002788,-0.00004840,-0.00022151,0.00009140,-0.00018831,-0.
 00188038,0.00021942,0.00106111,0.00284668,0.00214544,0.01831017,-0.041
 25450,0.00008940,0.00128323,0.00477519,-0.00019496,-0.00043541,-0.0060
 7279,0.00001258,-0.00002456,0.00009374,-0.00000046,0.,0.00000062,0.000
 00007,-0.00000002,0.00000116,0.00000005,0.00000061,0.00000095,-0.00000
 005,0.00000007,0.00000164,0.,0.00000074,0.00000123,-0.00000013,0.00000
 013,0.00000377,0.00000014,0.00000115,0.00000549,-0.00000198,0.00000013
 ,0.00000666,0.00001639,0.00000350,0.00012378,-0.00006149,-0.00001983,0
 .00024543,-0.00010165,0.00028682,0.00404498,-0.00244589,-0.02081480,0.
 02742943,0.00000172,0.,-0.00000003,-0.00000271,0.00000051,-0.00000005,
 0.00000442,-0.00000021,-0.00000002,-0.00000640,0.00000005,0.00000019,0
 .00000980,0.00000059,-0.00000016,-0.00001203,-0.00000274,-0.00000040,0
 .00003472,0.00000768,-0.00000049,-0.00000080,0.00006738,-0.00000277,-0
 .00009127,0.00021595,-0.00001404,0.00141007,-0.00190390,0.00007011,-0.
 00055892,-0.03080533,0.00203708,-0.06238181,-0.03099453,0.00217875,0.0
 0496716,0.02620617,-0.00171352,0.00164402,0.00100854,-0.00008842,0.000
 00004,0.00000004,0.,0.00000010,0.00000027,-0.00000001,-0.00000016,0.00
 000038,-0.00000002,0.00000038,0.00000052,-0.00000002,-0.00000055,0.000
 00097,-0.00000005,0.00000142,0.00000136,-0.00000016,-0.00000357,0.0000
 0319,-0.00000015,0.00001270,0.00000429,-0.00000023,-0.00005335,0.00003
 719,-0.00000198,0.00013145,0.00023455,-0.00001361,-0.00028838,0.000996
 44,-0.00006059,-0.00467591,-0.00167757,0.00020949,0.06382536,-0.000000
 25,-0.00000454,0.00000018,0.00000610,0.00000360,-0.00000060,-0.0000141
 7,-0.00000745,0.00000056,0.00002234,0.00000047,0.00000115,-0.00004056,
 -0.00000824,0.00000036,0.00005506,-0.00001253,-0.00000553,-0.00010534,
 -0.00000570,0.00000343,0.00008485,-0.00004329,0.00001638,-0.00034097,0
 .00047934,-0.00003487,0.00215013,0.00080319,-0.00045247,-0.00062584,-0
 .01098160,0.00103596,-0.03241085,-0.32022970,0.01846404,-0.00408412,-0
 .01624410,0.00127581,-0.00122372,0.00113895,-0.00016410,0.00000059,0.0
 0000006,0.00000009,0.00000003,0.00000068,0.,-0.00000013,-0.00000002,0.
 00000006,0.00000052,0.00000101,0.00000007,-0.00000045,0.00000063,0.000
 00007,0.00000142,0.00000194,-0.00000067,-0.00000118,0.00000279,0.00000
 007,0.00000460,0.00000342,0.00000097,-0.00001923,0.00000884,-0.0000000
 5,0.00023571,-0.00000018,0.00002108,-0.00088756,0.00063802,-0.00001778
 ,-0.00164517,0.00033384,0.00058664,0.03531195,0.34381759,-0.00000001,0
 .00000017,-0.00000186,-0.00000041,-0.00000056,-0.00000489,0.00000088,0
 .00000045,-0.00000050,-0.00000125,0.00000131,0.00002063,0.00000251,0.0
 0000006,-0.00000726,-0.00000415,-0.00000511,-0.00009132,0.00000683,0.0
 0000260,0.00003511,-0.00000391,0.00001650,0.00021780,0.00002207,-0.000
 03892,-0.00009438,-0.00019274,-0.00042303,-0.00590603,0.00008041,0.001
 25506,0.00484481,0.00227058,0.01845376,-0.04028553,0.00025034,0.001055
 90,0.00290620,0.00005630,-0.00018031,-0.00151787,-0.00000003,0.0000000
 9,0.00000147,0.,-0.00000001,0.00000053,0.00000002,0.00000006,0.0000009
 2,-0.00000002,0.00000007,0.00000212,0.00000005,0.00000006,0.00000164,-
 0.00000016,-0.00000067,-0.00000821,0.00000013,0.00000004,0.00000375,-0
 .00000025,0.00000098,0.00001890,0.00000168,-0.00000046,0.00000591,-0.0
 0001368,0.00002109,0.00035010,0.00006156,-0.00003146,0.00026603,0.0002
 0739,0.00058687,0.00915824,-0.00257080,-0.02092216,0.02644690,0.000000
 62,-0.00000172,0.00000010,0.00000162,0.00000241,-0.00000017,-0.0000041
 9,-0.00000253,0.00000019,0.00000679,0.00000132,-0.00000014,-0.00001074
 ,-0.00000143,0.00000016,0.00001618,-0.00000127,-0.00000007,-0.00002250
 ,-0.00000007,0.00000009,0.00005567,-0.00000987,0.00000035,-0.00005266,
 -0.00009009,0.00000607,-0.00007926,-0.00008112,0.00000436,0.00165257,0
 .00141908,-0.00011583,0.00473164,0.02628833,-0.00171684,-0.06213563,-0
 .03242518,0.00225050,-0.00146916,-0.03196010,0.00212068,0.00000043,-0.
 00000009,0.,-0.00000014,0.00000006,0.,0.,-0.00000050,0.00000004,-0.000
 00016,-0.00000013,0.00000002,0.00000008,-0.00000064,0.00000005,-0.0000
 0042,-0.00000037,0.00000004,0.00000049,-0.00000107,0.00000008,-0.00000
 332,-0.00000093,0.00000012,0.00000818,-0.00000365,0.00000022,-0.000050
 84,-0.00001837,0.00000164,0.00003972,-0.00024295,0.00001622,-0.0002865
 0,-0.00089194,0.00006151,-0.00386313,0.00244436,-0.00010400,0.06511511
 ,0.00002930,-0.00002324,0.00000121,-0.00000977,0.00004735,-0.00000303,
 0.00000762,-0.00004668,0.00000290,0.00000238,0.00005414,-0.00000355,-0
 .00000121,-0.00005433,0.00000347,0.00001517,0.00006533,-0.00000463,-0.
 00001459,-0.00007596,0.00000433,0.00003990,0.00008750,-0.00000496,-0.0
 0000737,-0.00010078,0.00000521,0.00042683,0.00055914,-0.00005252,-0.00
 180713,0.00084304,-0.00014713,-0.00381751,-0.01698435,0.00132444,-0.03
 380727,-0.32074301,0.01833587,-0.00007309,-0.00942463,0.00095010,0.000
 00571,0.00000044,-0.00000004,-0.00000086,0.00000097,-0.00000002,-0.000
 00050,-0.00000687,0.00000049,0.00000038,-0.00000002,0.00000006,0.00000
 025,-0.00000847,0.00000061,0.00000071,-0.00000005,0.00000010,0.0000002
 0,-0.00001010,0.00000074,0.00000289,0.00000123,0.00000017,-0.00000233,
 -0.00001196,0.00000114,0.00003934,0.00000653,-0.00000003,-0.00025389,0
 .00010444,0.00000187,0.00104990,0.00067920,-0.00003740,0.00262843,-0.0
 0064166,0.00025862,0.03722290,0.34356409,-0.00000191,0.00000144,-0.000
 00137,0.00000062,-0.00000312,-0.00000027,-0.00000047,0.00000298,-0.000
 00122,-0.00000021,-0.00000355,-0.00000017,0.00000015,0.00000347,-0.000
 00121,-0.00000113,-0.00000451,-0.00000405,0.00000103,0.00000422,-0.000
 01110,-0.00000288,-0.00000460,0.00001576,0.00000071,0.00000581,-0.0000
 2163,-0.00002857,-0.00004884,-0.00019980,0.00009335,-0.00017055,-0.001
 61825,0.00023505,0.00110588,0.00294273,0.00234011,0.01832585,-0.042923
 06,0.00005330,0.00118158,0.00514441,-0.00000037,0.,0.00000045,0.000000
 06,-0.00000002,0.00000061,0.00000004,0.00000049,0.00000052,-0.00000002
 ,0.00000006,0.00000092,0.,0.00000062,0.00000095,-0.00000003,0.00000011
 ,0.00000160,0.,0.00000075,0.00000133,-0.00000013,0.00000020,0.00000424
 ,0.00000013,0.00000115,0.00000525,-0.00000211,0.00000039,0.00001052,0.
 00001693,0.00000179,0.00010456,-0.00006439,-0.00002330,0.00022194,-0.0
 0011593,0.00025996,0.00362558,-0.00268783,-0.02077490,0.02866857,0.000
 00441,-0.00000295,0.00000015,-0.00000225,0.00000638,-0.00000039,0.0000
 0218,-0.00000569,0.00000035,-0.00000193,0.00000656,-0.00000046,0.00000
 259,-0.00000557,0.00000034,-0.00000259,0.00000661,-0.00000023,0.000004
 31,-0.00000524,0.00000024,-0.00000292,0.00000412,-0.00000101,0.0000231
 6,-0.00000168,0.00000021,0.00003937,0.00007566,-0.00000283,-0.00013804
 ,0.00020778,-0.00001296,0.00178955,-0.00184184,0.00005279,-0.00031448,
 -0.03091604,0.00204092,-0.06610782,-0.04158563,0.00293475,0.00000083,0
 .,0.,-0.00000013,0.00000017,0.,-0.00000014,-0.00000086,0.00000006,0.00
 000010,0.00000003,0.,-0.00000014,-0.00000090,0.00000007,0.00000021,0.0
 0000011,0.00000001,-0.00000043,-0.00000060,0.00000006,0.00000135,0.000
 00071,-0.00000012,-0.00000321,0.00000099,-0.00000001,0.00001046,0.0000
 0343,-0.00000018,-0.00005020,0.00003398,-0.00000181,0.00013447,0.00023
 388,-0.00001368,-0.00023358,0.00095530,-0.00005814,-0.00467966,-0.0015
 8074,0.00021624,0.06287599,-0.00000422,0.00000041,-0.00000008,0.000005
 14,-0.00000430,0.00000029,-0.00000896,0.00000146,-0.00000010,0.0000126
 1,-0.00000609,-0.00000010,-0.00002088,0.00000076,0.00000007,0.00002908
 ,-0.00000960,0.00000198,-0.00004953,-0.00000043,-0.00000020,0.00006544
 ,-0.00002310,-0.00000583,-0.00012273,-0.00000139,0.00000340,0.00010895
 ,-0.00005872,0.00002412,-0.00033363,0.00043106,-0.00002988,0.00220398,
 0.00096770,-0.00055773,-0.00078045,-0.00961626,0.00093473,-0.04504124,
 -0.32968548,0.01954660,-0.00000052,0.00000006,0.00000001,0.00000017,0.
 00000030,0.00000002,0.00000006,0.00000097,-0.00000002,0.00000027,0.000
 00068,-0.00000001,-0.00000016,0.00000141,-0.00000002,0.00000059,0.0000
 0121,0.00000009,-0.00000037,0.00000230,-0.00000002,0.00000160,0.000002
 37,-0.00000077,-0.00000094,0.00000470,-0.00000002,0.00000498,0.0000039
 0,0.00000076,-0.00001436,0.00000789,-0.00000019,0.00021964,-0.00001836
 ,0.00002155,-0.00096676,0.00054666,-0.00000969,-0.00187996,0.00089596,
 0.00066810,0.05181276,0.34876333,0.00000023,-0.00000009,-0.00000127,-0
 .00000031,0.00000028,0.00000076,0.00000056,-0.00000012,-0.00000106,-0.
 00000085,-0.00000006,-0.00000621,0.00000133,-0.00000004,-0.00000055,-0
 .00000169,0.00000214,0.00002405,0.00000311,-0.00000053,-0.00000913,-0.
 00000499,-0.00000538,-0.00010529,0.00000806,0.00000252,0.00003705,-0.0
 0000499,0.00002436,0.00032394,0.00002215,-0.00003381,-0.00006510,-0.00
 020952,-0.00052836,-0.00735221,0.00008711,0.00115349,0.00463808,0.0031
 5879,0.01952150,-0.03453129,0.00000003,0.00000001,0.00000022,0.,0.0000
 0002,0.00000066,0.,-0.00000002,0.00000061,-0.00000001,0.,0.00000053,0.
 00000002,0.,0.00000116,-0.00000002,0.00000009,0.00000267,0.00000004,-0
 .00000002,0.00000196,-0.00000018,-0.00000076,-0.00000920,0.00000012,-0
 .00000003,0.00000428,-0.00000028,0.00000078,0.00001620,0.00000132,-0.0
 0000054,0.00000340,-0.00001276,0.00002144,0.00033728,0.00006647,-0.000
 02364,0.00029006,0.00023564,0.00066594,0.01094540,-0.00365758,-0.02157
 593,0.02320390,-0.00002401,0.00001734,-0.00000096,0.00001012,-0.000037
 41,0.00000233,-0.00001013,0.00003458,-0.00000217,0.00000501,-0.0000424
 2,0.00000281,-0.00001047,0.00003823,-0.00000243,0.00000399,-0.00005205
 ,0.00000285,-0.00002090,0.00005216,-0.00000317,-0.00001296,-0.00008563
 ,0.00000791,-0.00009132,0.00015054,-0.00000963,-0.00025969,-0.00037077
 ,0.00001532,-0.00062430,0.00135223,-0.00008150,-0.00266002,-0.00422081
 ,0.00037757,-0.01872519,0.02052099,-0.00116418,-0.23737965,0.13693387,
 -0.00738149,-0.00000464,-0.00000018,0.00000005,0.00000083,-0.00000052,
 0.00000003,0.00000043,0.00000571,-0.00000037,0.00000004,0.00000059,-0.
 00000003,-0.00000025,0.00000714,-0.00000046,0.00000032,0.00000114,-0.0
 0000009,-0.00000042,0.00000891,-0.00000056,0.00000068,0.00000129,0.000
 00008,0.00000089,0.00001180,-0.00000077,0.00000111,-0.00000275,-0.0000
 0038,0.00001616,0.00001726,-0.00000106,0.00000510,-0.00007498,0.000005
 90,0.00012917,0.00012657,-0.00001119,0.00102922,-0.00009569,-0.0000517
 1,0.00664857,-0.00524054,0.00030821,0.25197232,0.00000056,0.00000168,-
 0.00000018,-0.00000315,-0.00000184,-0.00000009,0.00000524,0.00000356,-
 0.00000027,-0.00000958,-0.00000283,0.00000112,0.00001361,0.00000660,-0
 .00000080,-0.00002296,-0.00000570,-0.00000392,0.00003042,0.00001586,-0
 .00000068,-0.00006103,-0.00001811,0.00002186,0.00005667,0.00006514,-0.
 00000942,-0.00027332,-0.00012688,-0.00008454,-0.00017301,0.00079495,-0
 .00003564,-0.00208780,-0.00086979,0.00082722,-0.01240130,0.01062077,-0
 .00032751,0.14144664,-0.16572796,0.00769352,-0.00000018,-0.00000013,0.
 00000007,0.,0.00000006,0.00000001,-0.00000009,0.00000044,0.,0.00000004
 ,0.00000006,0.00000009,-0.00000031,0.00000077,0.,0.00000018,0.00000010
 ,-0.00000016,-0.00000085,0.00000156,0.00000002,0.00000064,0.00000037,0
 .00000148,-0.00000162,0.00000344,-0.00000017,0.00000008,-0.00000161,-0
 .00000481,-0.00000651,0.00001065,0.00000097,0.00008491,-0.00000850,0.0
 0000953,-0.00037544,0.00039798,-0.00004134,0.00023552,0.00122277,-0.00
 053146,0.02259929,-0.01220940,0.00077676,-0.14905662,0.16582597,0.0000
 0013,-0.00000030,-0.00000101,0.00000011,0.00000016,-0.00000356,-0.0000
 0027,-0.00000048,0.00000008,0.00000068,0.00000136,0.00001332,-0.000000
 84,-0.00000098,-0.00000422,0.00000096,-0.00000371,-0.00006852,-0.00000
 176,-0.00000083,0.00000891,0.00000632,0.00002204,0.00031075,-0.0000035
 5,-0.00001010,-0.00007309,0.00000900,-0.00008383,-0.00145600,0.0000173
 8,-0.00004672,0.00022870,0.00023929,0.00084270,0.01159897,0.00097031,-
 0.00056650,0.00421038,-0.00767408,0.00772628,-0.03167155,0.00000005,0.
 00000007,0.00000099,0.,0.00000001,0.00000022,0.,-0.00000004,0.00000045
 ,0.,0.00000009,0.00000147,0.00000003,-0.00000006,0.00000062,-0.0000000
 3,-0.00000017,-0.00000241,0.00000007,-0.00000005,0.00000181,0.00000012
 ,0.00000148,0.00002324,0.00000010,-0.00000027,0.00000059,-0.00000056,-
 0.00000479,-0.00007545,0.00000049,0.00000080,0.00002490,-0.00000447,0.
 00001069,0.00014741,0.00002136,-0.00004498,-0.00027884,-0.00007318,-0.
 00052906,-0.00691324,-0.00149676,0.00097886,0.00224908,0.00798908,-0.0
 0829167,0.02172597\\0.00001713,0.00003966,-0.00000270,-0.00004881,-0.0
 0004532,0.00000329,0.00004935,0.00009189,-0.00000631,-0.00005036,-0.00
 008873,0.00000613,0.00007493,0.00009062,-0.00000642,-0.00007701,-0.000
 08936,0.00000637,0.00008936,0.00009214,-0.00000662,-0.00008896,-0.0000
 9187,0.00000660,0.00007886,0.00009001,-0.00000639,-0.00007613,-0.00009
 081,0.00000644,0.00005250,0.00008942,-0.00000617,-0.00005108,-0.000092
 25,0.00000636,0.00005026,0.00004591,-0.00000335,-0.00001778,-0.0000402
 7,0.00000274,-0.00000765,-0.00001433,0.00000099,-0.00000170,-0.0000090
 9,0.00000061,0.00000436,0.00001569,-0.00000104,-0.00000063,-0.00002759
 ,0.00000179,0.00000039,0.00002379,-0.00000154,-0.00000520,-0.00002456,
 0.00000161,0.00000453,0.00002381,-0.00000158,-0.00000656,-0.00002514,0
 .00000167,0.00000608,0.00002489,-0.00000167,-0.00000518,-0.00002401,0.
 00000159,0.00000499,0.00002437,-0.00000164,-0.00000098,-0.00002394,0.0
 0000156,0.00000059,0.00002756,-0.00000180,-0.00000476,-0.00001586,0.00
 000107,0.00000186,0.00000915,-0.00000060,0.00000760,0.00001423,-0.0000
 0097\\\@


      SCIENCE SANS CONSCIENCE N'EST QUE RUINE DE L'AME.

                                                  -- RABELAIS
 Job cpu time:       0 days  0 hours 56 minutes 10.1 seconds.
 Elapsed time:       0 days  0 hours 14 minutes  2.8 seconds.
 File lengths (MBytes):  RWF=    263 Int=      0 D2E=      0 Chk=     30 Scr=      1
 Normal termination of Gaussian 16 at Thu Nov  9 20:05:05 2023.
