 Entering Gaussian System, Link 0=g16
 Input=./com/9.com
 Output=./log/9.log
 Initial command:
 /home/shohei/gaussian/g16/l1.exe "/home/shohei/gaussian/scratch/Gau-16384.inp" -scrdir="/home/shohei/gaussian/scratch/"
 Entering Link 1 = /home/shohei/gaussian/g16/l1.exe PID=     16386.
  
 Copyright (c) 1988-2017, Gaussian, Inc.  All Rights Reserved.
  
 This is part of the Gaussian(R) 16 program.  It is based on
 the Gaussian(R) 09 system (copyright 2009, Gaussian, Inc.),
 the Gaussian(R) 03 system (copyright 2003, Gaussian, Inc.),
 the Gaussian(R) 98 system (copyright 1998, Gaussian, Inc.),
 the Gaussian(R) 94 system (copyright 1995, Gaussian, Inc.),
 the Gaussian 92(TM) system (copyright 1992, Gaussian, Inc.),
 the Gaussian 90(TM) system (copyright 1990, Gaussian, Inc.),
 the Gaussian 88(TM) system (copyright 1988, Gaussian, Inc.),
 the Gaussian 86(TM) system (copyright 1986, Carnegie Mellon
 University), and the Gaussian 82(TM) system (copyright 1983,
 Carnegie Mellon University). Gaussian is a federally registered
 trademark of Gaussian, Inc.
  
 This software contains proprietary and confidential information,
 including trade secrets, belonging to Gaussian, Inc.
  
 This software is provided under written license and may be
 used, copied, transmitted, or stored only in accord with that
 written license.
  
 The following legend is applicable only to US Government
 contracts under FAR:
  
                    RESTRICTED RIGHTS LEGEND
  
 Use, reproduction and disclosure by the US Government is
 subject to restrictions as set forth in subparagraphs (a)
 and (c) of the Commercial Computer Software - Restricted
 Rights clause in FAR 52.227-19.
  
 Gaussian, Inc.
 340 Quinnipiac St., Bldg. 40, Wallingford CT 06492
  
  
 ---------------------------------------------------------------
 Warning -- This program may not be used in any manner that
 competes with the business of Gaussian, Inc. or will provide
 assistance to any competitor of Gaussian, Inc.  The licensee
 of this program is prohibited from giving any competitor of
 Gaussian, Inc. access to this program.  By using this program,
 the user acknowledges that Gaussian, Inc. is engaged in the
 business of creating and licensing software in the field of
 computational chemistry and represents and warrants to the
 licensee that it is not a competitor of Gaussian, Inc. and that
 it will not use this program in any manner prohibited above.
 ---------------------------------------------------------------
  

 Cite this work as:
 Gaussian 16, Revision B.01,
 M. J. Frisch, G. W. Trucks, H. B. Schlegel, G. E. Scuseria, 
 M. A. Robb, J. R. Cheeseman, G. Scalmani, V. Barone, 
 G. A. Petersson, H. Nakatsuji, X. Li, M. Caricato, A. V. Marenich, 
 J. Bloino, B. G. Janesko, R. Gomperts, B. Mennucci, H. P. Hratchian, 
 J. V. Ortiz, A. F. Izmaylov, J. L. Sonnenberg, D. Williams-Young, 
 F. Ding, F. Lipparini, F. Egidi, J. Goings, B. Peng, A. Petrone, 
 T. Henderson, D. Ranasinghe, V. G. Zakrzewski, J. Gao, N. Rega, 
 G. Zheng, W. Liang, M. Hada, M. Ehara, K. Toyota, R. Fukuda, 
 J. Hasegawa, M. Ishida, T. Nakajima, Y. Honda, O. Kitao, H. Nakai, 
 T. Vreven, K. Throssell, J. A. Montgomery, Jr., J. E. Peralta, 
 F. Ogliaro, M. J. Bearpark, J. J. Heyd, E. N. Brothers, K. N. Kudin, 
 V. N. Staroverov, T. A. Keith, R. Kobayashi, J. Normand, 
 K. Raghavachari, A. P. Rendell, J. C. Burant, S. S. Iyengar, 
 J. Tomasi, M. Cossi, J. M. Millam, M. Klene, C. Adamo, R. Cammi, 
 J. W. Ochterski, R. L. Martin, K. Morokuma, O. Farkas, 
 J. B. Foresman, and D. J. Fox, Gaussian, Inc., Wallingford CT, 2016.
 
 ******************************************
 Gaussian 16:  EM64L-G16RevB.01 20-Dec-2017
                 9-Nov-2023 
 ******************************************
 %chk=checkpoint.chk
 %nprocshared=4
 Will use up to    4 processors via shared memory.
 ---------------------------
 # B3LYP/6-31G(d,p) OPT FREQ
 ---------------------------
 1/18=20,19=15,26=3,38=1/1,3;
 2/9=110,12=2,17=6,18=5,40=1/2;
 3/5=1,6=6,7=101,11=2,25=1,30=1,71=1,74=-5/1,2,3;
 4//1;
 5/5=2,38=5/2;
 6/7=2,8=2,9=2,10=2,28=1/1;
 7//1,2,3,16;
 1/18=20,19=15,26=3/3(2);
 2/9=110/2;
 99//99;
 2/9=110/2;
 3/5=1,6=6,7=101,11=2,25=1,30=1,71=1,74=-5/1,2,3;
 4/5=5,16=3,69=1/1;
 5/5=2,38=5/2;
 7//1,2,3,16;
 1/18=20,19=15,26=3/3(-5);
 2/9=110/2;
 6/7=2,8=2,9=2,10=2,19=2,28=1/1;
 99/9=1/99;
 -----
 9poly
 -----
 Symbolic Z-matrix:
 Charge =  0 Multiplicity = 1
 C                    -2.32028   1.09093   0.01601 
 C                    -1.11002   1.65294  -0.02511 
 C                     0.11577   0.82961   0.01771 
 C                     1.3285    1.39708  -0.02371 
 C                     2.55417   0.57271   0.01918 
 C                     3.76783   1.13832  -0.02213 
 C                     4.99172   0.31133   0.02088 
 C                     6.20688   0.87366  -0.02044 
 C                     7.42816   0.04279   0.02262 
 C                     8.64528   0.60078  -0.01895 
 C                     9.86345  -0.23473   0.02403 
 C                     11.08265   0.31856  -0.01805 
 C                     12.29777  -0.52148   0.02474 
 C                     13.5188   0.02766  -0.01799 
 C                     14.73153  -0.8159    0.02459 
 C                     15.95376  -0.26958  -0.01868 
 C                     17.16439  -1.11527   0.02377 
 C                     18.3849  -0.57622  -0.01936 
 H                    -3.20855   1.71349  -0.01659 
 H                    -2.43757   0.01322   0.08206 
 H                    -1.0342    2.73501  -0.09118 
 H                     0.02699  -0.25248   0.08384 
 H                     1.41685   2.47916  -0.08984 
 H                     2.46468  -0.5093    0.08529 
 H                     3.8583    2.22021  -0.08826 
 H                     4.89959  -0.77047   0.08703 
 H                     6.30046   1.95528  -0.08666 
 H                     7.3324   -1.03869   0.08894 
 H                     8.74276   1.68204  -0.0854 
 H                     9.76362  -1.31582   0.09065 
 H                     11.18416   1.39943  -0.08485 
 H                     12.1942  -1.60219   0.09173 
 H                     13.62369   1.10819  -0.08515 
 H                     14.6254  -1.89635   0.09191 
 H                     16.06152   0.81066  -0.08611 
 H                     17.06861  -2.19572   0.0912 
 H                     18.52242   0.49896  -0.08685 
 H                     19.26122  -1.21556   0.01299 
 

 GradGradGradGradGradGradGradGradGradGradGradGradGradGradGradGradGradGrad
 Berny optimization.
 Initialization pass.
                           ----------------------------
                           !    Initial Parameters    !
                           ! (Angstroms and Degrees)  !
 --------------------------                            --------------------------
 ! Name  Definition              Value          Derivative Info.                !
 --------------------------------------------------------------------------------
 ! R1    R(1,2)                  1.335          estimate D2E/DX2                !
 ! R2    R(1,19)                 1.0852         estimate D2E/DX2                !
 ! R3    R(1,20)                 1.0861         estimate D2E/DX2                !
 ! R4    R(2,3)                  1.4772         estimate D2E/DX2                !
 ! R5    R(2,21)                 1.0867         estimate D2E/DX2                !
 ! R6    R(3,4)                  1.3396         estimate D2E/DX2                !
 ! R7    R(3,22)                 1.0877         estimate D2E/DX2                !
 ! R8    R(4,5)                  1.4777         estimate D2E/DX2                !
 ! R9    R(4,23)                 1.0877         estimate D2E/DX2                !
 ! R10   R(5,6)                  1.3396         estimate D2E/DX2                !
 ! R11   R(5,24)                 1.0877         estimate D2E/DX2                !
 ! R12   R(6,7)                  1.4777         estimate D2E/DX2                !
 ! R13   R(6,25)                 1.0877         estimate D2E/DX2                !
 ! R14   R(7,8)                  1.3396         estimate D2E/DX2                !
 ! R15   R(7,26)                 1.0877         estimate D2E/DX2                !
 ! R16   R(8,9)                  1.4777         estimate D2E/DX2                !
 ! R17   R(8,27)                 1.0877         estimate D2E/DX2                !
 ! R18   R(9,10)                 1.3396         estimate D2E/DX2                !
 ! R19   R(9,28)                 1.0877         estimate D2E/DX2                !
 ! R20   R(10,11)                1.4778         estimate D2E/DX2                !
 ! R21   R(10,29)                1.0877         estimate D2E/DX2                !
 ! R22   R(11,12)                1.3395         estimate D2E/DX2                !
 ! R23   R(11,30)                1.0877         estimate D2E/DX2                !
 ! R24   R(12,13)                1.4778         estimate D2E/DX2                !
 ! R25   R(12,31)                1.0877         estimate D2E/DX2                !
 ! R26   R(13,14)                1.3395         estimate D2E/DX2                !
 ! R27   R(13,32)                1.0877         estimate D2E/DX2                !
 ! R28   R(14,15)                1.4779         estimate D2E/DX2                !
 ! R29   R(14,33)                1.0877         estimate D2E/DX2                !
 ! R30   R(15,16)                1.3395         estimate D2E/DX2                !
 ! R31   R(15,34)                1.0877         estimate D2E/DX2                !
 ! R32   R(16,17)                1.4774         estimate D2E/DX2                !
 ! R33   R(16,35)                1.0877         estimate D2E/DX2                !
 ! R34   R(17,18)                1.3349         estimate D2E/DX2                !
 ! R35   R(17,36)                1.0868         estimate D2E/DX2                !
 ! R36   R(18,37)                1.086          estimate D2E/DX2                !
 ! R37   R(18,38)                1.0852         estimate D2E/DX2                !
 ! A1    A(2,1,19)             119.9737         estimate D2E/DX2                !
 ! A2    A(2,1,20)             121.1651         estimate D2E/DX2                !
 ! A3    A(19,1,20)            118.8613         estimate D2E/DX2                !
 ! A4    A(1,2,3)              121.1122         estimate D2E/DX2                !
 ! A5    A(1,2,21)             118.9661         estimate D2E/DX2                !
 ! A6    A(3,2,21)             119.9216         estimate D2E/DX2                !
 ! A7    A(2,3,4)              120.945          estimate D2E/DX2                !
 ! A8    A(2,3,22)             119.2407         estimate D2E/DX2                !
 ! A9    A(4,3,22)             119.8143         estimate D2E/DX2                !
 ! A10   A(3,4,5)              120.9087         estimate D2E/DX2                !
 ! A11   A(3,4,23)             119.7917         estimate D2E/DX2                !
 ! A12   A(5,4,23)             119.2996         estimate D2E/DX2                !
 ! A13   A(4,5,6)              120.9979         estimate D2E/DX2                !
 ! A14   A(4,5,24)             119.2392         estimate D2E/DX2                !
 ! A15   A(6,5,24)             119.7629         estimate D2E/DX2                !
 ! A16   A(5,6,7)              120.8753         estimate D2E/DX2                !
 ! A17   A(5,6,25)             119.8148         estimate D2E/DX2                !
 ! A18   A(7,6,25)             119.3099         estimate D2E/DX2                !
 ! A19   A(6,7,8)              121.029          estimate D2E/DX2                !
 ! A20   A(6,7,26)             119.2223         estimate D2E/DX2                !
 ! A21   A(8,7,26)             119.7487         estimate D2E/DX2                !
 ! A22   A(7,8,9)              120.8476         estimate D2E/DX2                !
 ! A23   A(7,8,27)             119.8256         estimate D2E/DX2                !
 ! A24   A(9,8,27)             119.3268         estimate D2E/DX2                !
 ! A25   A(8,9,10)             121.0503         estimate D2E/DX2                !
 ! A26   A(8,9,28)             119.2117         estimate D2E/DX2                !
 ! A27   A(10,9,28)            119.738          estimate D2E/DX2                !
 ! A28   A(9,10,11)            120.8343         estimate D2E/DX2                !
 ! A29   A(9,10,29)            119.8293         estimate D2E/DX2                !
 ! A30   A(11,10,29)           119.3364         estimate D2E/DX2                !
 ! A31   A(10,11,12)           121.0529         estimate D2E/DX2                !
 ! A32   A(10,11,30)           119.2126         estimate D2E/DX2                !
 ! A33   A(12,11,30)           119.7346         estimate D2E/DX2                !
 ! A34   A(11,12,13)           120.8417         estimate D2E/DX2                !
 ! A35   A(11,12,31)           119.8237         estimate D2E/DX2                !
 ! A36   A(13,12,31)           119.3345         estimate D2E/DX2                !
 ! A37   A(12,13,14)           121.0338         estimate D2E/DX2                !
 ! A38   A(12,13,32)           119.2256         estimate D2E/DX2                !
 ! A39   A(14,13,32)           119.7406         estimate D2E/DX2                !
 ! A40   A(13,14,15)           120.8697         estimate D2E/DX2                !
 ! A41   A(13,14,33)           119.8105         estimate D2E/DX2                !
 ! A42   A(15,14,33)           119.3199         estimate D2E/DX2                !
 ! A43   A(14,15,16)           120.9996         estimate D2E/DX2                !
 ! A44   A(14,15,34)           119.2546         estimate D2E/DX2                !
 ! A45   A(16,15,34)           119.7458         estimate D2E/DX2                !
 ! A46   A(15,16,17)           120.886          estimate D2E/DX2                !
 ! A47   A(15,16,35)           119.8329         estimate D2E/DX2                !
 ! A48   A(17,16,35)           119.2811         estimate D2E/DX2                !
 ! A49   A(16,17,18)           121.1399         estimate D2E/DX2                !
 ! A50   A(16,17,36)           119.9108         estimate D2E/DX2                !
 ! A51   A(18,17,36)           118.9493         estimate D2E/DX2                !
 ! A52   A(17,18,37)           121.1674         estimate D2E/DX2                !
 ! A53   A(17,18,38)           119.9613         estimate D2E/DX2                !
 ! A54   A(37,18,38)           118.8713         estimate D2E/DX2                !
 ! D1    D(19,1,2,3)           179.9996         estimate D2E/DX2                !
 ! D2    D(19,1,2,21)            0.0            estimate D2E/DX2                !
 ! D3    D(20,1,2,3)            -0.0001         estimate D2E/DX2                !
 ! D4    D(20,1,2,21)         -179.9997         estimate D2E/DX2                !
 ! D5    D(1,2,3,4)           -179.9979         estimate D2E/DX2                !
 ! D6    D(1,2,3,22)             0.0016         estimate D2E/DX2                !
 ! D7    D(21,2,3,4)             0.0016         estimate D2E/DX2                !
 ! D8    D(21,2,3,22)         -179.9988         estimate D2E/DX2                !
 ! D9    D(2,3,4,5)            179.9995         estimate D2E/DX2                !
 ! D10   D(2,3,4,23)            -0.0004         estimate D2E/DX2                !
 ! D11   D(22,3,4,5)             0.0            estimate D2E/DX2                !
 ! D12   D(22,3,4,23)         -179.9999         estimate D2E/DX2                !
 ! D13   D(3,4,5,6)           -179.9999         estimate D2E/DX2                !
 ! D14   D(3,4,5,24)             0.0014         estimate D2E/DX2                !
 ! D15   D(23,4,5,6)             0.0001         estimate D2E/DX2                !
 ! D16   D(23,4,5,24)         -179.9987         estimate D2E/DX2                !
 ! D17   D(4,5,6,7)           -179.9975         estimate D2E/DX2                !
 ! D18   D(4,5,6,25)            -0.0003         estimate D2E/DX2                !
 ! D19   D(24,5,6,7)             0.0013         estimate D2E/DX2                !
 ! D20   D(24,5,6,25)          179.9984         estimate D2E/DX2                !
 ! D21   D(5,6,7,8)            179.9905         estimate D2E/DX2                !
 ! D22   D(5,6,7,26)            -0.0038         estimate D2E/DX2                !
 ! D23   D(25,6,7,8)            -0.0066         estimate D2E/DX2                !
 ! D24   D(25,6,7,26)          179.9991         estimate D2E/DX2                !
 ! D25   D(6,7,8,9)           -179.9908         estimate D2E/DX2                !
 ! D26   D(6,7,8,27)             0.0009         estimate D2E/DX2                !
 ! D27   D(26,7,8,9)             0.0034         estimate D2E/DX2                !
 ! D28   D(26,7,8,27)          179.9951         estimate D2E/DX2                !
 ! D29   D(7,8,9,10)           179.975          estimate D2E/DX2                !
 ! D30   D(7,8,9,28)            -0.0134         estimate D2E/DX2                !
 ! D31   D(27,8,9,10)           -0.0168         estimate D2E/DX2                !
 ! D32   D(27,8,9,28)          179.9949         estimate D2E/DX2                !
 ! D33   D(8,9,10,11)         -179.9829         estimate D2E/DX2                !
 ! D34   D(8,9,10,29)            0.0031         estimate D2E/DX2                !
 ! D35   D(28,9,10,11)           0.0053         estimate D2E/DX2                !
 ! D36   D(28,9,10,29)         179.9913         estimate D2E/DX2                !
 ! D37   D(9,10,11,12)         179.9606         estimate D2E/DX2                !
 ! D38   D(9,10,11,30)          -0.0233         estimate D2E/DX2                !
 ! D39   D(29,10,11,12)         -0.0255         estimate D2E/DX2                !
 ! D40   D(29,10,11,30)        179.9906         estimate D2E/DX2                !
 ! D41   D(10,11,12,13)       -179.9781         estimate D2E/DX2                !
 ! D42   D(10,11,12,31)          0.0052         estimate D2E/DX2                !
 ! D43   D(30,11,12,13)          0.0057         estimate D2E/DX2                !
 ! D44   D(30,11,12,31)        179.989          estimate D2E/DX2                !
 ! D45   D(11,12,13,14)        179.9559         estimate D2E/DX2                !
 ! D46   D(11,12,13,32)         -0.028          estimate D2E/DX2                !
 ! D47   D(31,12,13,14)         -0.0274         estimate D2E/DX2                !
 ! D48   D(31,12,13,32)        179.9887         estimate D2E/DX2                !
 ! D49   D(12,13,14,15)       -179.9798         estimate D2E/DX2                !
 ! D50   D(12,13,14,33)          0.0058         estimate D2E/DX2                !
 ! D51   D(32,13,14,15)          0.004          estimate D2E/DX2                !
 ! D52   D(32,13,14,33)        179.9896         estimate D2E/DX2                !
 ! D53   D(13,14,15,16)        179.965          estimate D2E/DX2                !
 ! D54   D(13,14,15,34)         -0.0238         estimate D2E/DX2                !
 ! D55   D(33,14,15,16)         -0.0206         estimate D2E/DX2                !
 ! D56   D(33,14,15,34)        179.9906         estimate D2E/DX2                !
 ! D57   D(14,15,16,17)       -179.9877         estimate D2E/DX2                !
 ! D58   D(14,15,16,35)          0.0043         estimate D2E/DX2                !
 ! D59   D(34,15,16,17)          0.0011         estimate D2E/DX2                !
 ! D60   D(34,15,16,35)        179.9931         estimate D2E/DX2                !
 ! D61   D(15,16,17,18)        179.9836         estimate D2E/DX2                !
 ! D62   D(15,16,17,36)         -0.0123         estimate D2E/DX2                !
 ! D63   D(35,16,17,18)         -0.0085         estimate D2E/DX2                !
 ! D64   D(35,16,17,36)        179.9957         estimate D2E/DX2                !
 ! D65   D(16,17,18,37)          0.0009         estimate D2E/DX2                !
 ! D66   D(16,17,18,38)       -179.9968         estimate D2E/DX2                !
 ! D67   D(36,17,18,37)        179.9968         estimate D2E/DX2                !
 ! D68   D(36,17,18,38)         -0.0009         estimate D2E/DX2                !
 --------------------------------------------------------------------------------
 Trust Radius=3.00D-01 FncErr=1.00D-07 GrdErr=1.00D-06 EigMax=2.50D+02 EigMin=1.00D-04
 Number of steps in this run=    169 maximum allowed number of steps=    228.
 GradGradGradGradGradGradGradGradGradGradGradGradGradGradGradGradGradGrad

                          Input orientation:                          
 ---------------------------------------------------------------------
 Center     Atomic      Atomic             Coordinates (Angstroms)
 Number     Number       Type             X           Y           Z
 ---------------------------------------------------------------------
      1          6           0       -2.320279    1.090930    0.016011
      2          6           0       -1.110023    1.652940   -0.025111
      3          6           0        0.115768    0.829613    0.017712
      4          6           0        1.328504    1.397083   -0.023713
      5          6           0        2.554171    0.572714    0.019184
      6          6           0        3.767831    1.138317   -0.022131
      7          6           0        4.991724    0.311333    0.020879
      8          6           0        6.206880    0.873662   -0.020437
      9          6           0        7.428165    0.042788    0.022620
     10          6           0        8.645276    0.600779   -0.018947
     11          6           0        9.863449   -0.234731    0.024033
     12          6           0       11.082651    0.318559   -0.018052
     13          6           0       12.297768   -0.521481    0.024741
     14          6           0       13.518798    0.027662   -0.017989
     15          6           0       14.731528   -0.815898    0.024589
     16          6           0       15.953755   -0.269585   -0.018679
     17          6           0       17.164392   -1.115271    0.023775
     18          6           0       18.384903   -0.576216   -0.019361
     19          1           0       -3.208549    1.713493   -0.016588
     20          1           0       -2.437570    0.013218    0.082065
     21          1           0       -1.034202    2.735006   -0.091182
     22          1           0        0.026988   -0.252477    0.083841
     23          1           0        1.416854    2.479161   -0.089838
     24          1           0        2.464676   -0.509305    0.085290
     25          1           0        3.858304    2.220207   -0.088260
     26          1           0        4.899590   -0.770466    0.087027
     27          1           0        6.300465    1.955283   -0.086663
     28          1           0        7.332400   -1.038687    0.088936
     29          1           0        8.742761    1.682043   -0.085403
     30          1           0        9.763619   -1.315816    0.090650
     31          1           0       11.184162    1.399433   -0.084848
     32          1           0       12.194196   -1.602187    0.091730
     33          1           0       13.623686    1.108190   -0.085148
     34          1           0       14.625403   -1.896346    0.091909
     35          1           0       16.061522    0.810655   -0.086114
     36          1           0       17.068608   -2.195716    0.091198
     37          1           0       18.522418    0.498959   -0.086849
     38          1           0       19.261220   -1.215558    0.012995
 ---------------------------------------------------------------------
                    Distance matrix (angstroms):
                    1          2          3          4          5
     1  C    0.000000
     2  C    1.335016   0.000000
     3  C    2.450024   1.477249   0.000000
     4  C    3.661820   2.451913   1.339577   0.000000
     5  C    4.901920   3.820362   2.451898   1.477729   0.000000
     6  C    6.088414   4.904926   3.665303   2.453014   1.339621
     7  C    7.353448   6.247667   4.903425   3.820998   2.451528
     8  C    8.530005   7.358285   6.091391   4.906377   3.665300
     9  C    9.804632   8.688816   7.354608   6.248370   4.902719
    10  C   10.976560   9.811877   8.532656   7.359978   6.091290
    11  C   12.255639  11.134757   9.805619   8.689671   7.353744
    12  C   13.425210  12.265476  10.978842   9.813594   8.532348
    13  C   14.706708  13.583057  12.256697  11.135887   9.804845
    14  C   15.874762  14.718831  13.427048  12.266973  10.978230
    15  C   17.158094  16.032853  14.708100  13.584575  12.256276
    16  C   18.324643  17.171740  15.876127  14.719911  13.426085
    17  C   19.609176  18.482954  17.159201  16.034011  14.707409
    18  C   20.772221  19.621959  18.323182  17.170168  15.872416
    19  H    1.085206   2.099417   3.439986   4.548078   5.874657
    20  H    1.086086   2.112477   2.681451   4.013675   5.023392
    21  H    2.090089   1.086729   2.228185   2.716058   4.190955
    22  H    2.705366   2.221548   1.087738   2.103939   2.659281
    23  H    3.988052   2.659311   2.103663   1.087691   2.222592
    24  H    5.045924   4.179230   2.704558   2.221954   1.087724
    25  H    6.281801   5.001005   3.993940   2.661125   2.103934
    26  H    7.456296   6.480811   5.044800   4.178898   2.703651
    27  H    8.664576   7.416908   6.287169   5.003593   3.994674
    28  H    9.885080   8.861849   7.454891   6.480157   5.043110
    29  H   11.079286   9.853012   8.669618   7.419988   6.288100
    30  H   12.321469  11.272222   9.883785   8.861380   7.453040
    31  H   13.508341  12.296943  11.083526   9.855847   8.670123
    32  H   14.762405  13.697143  12.321020  11.272631   9.882588
    33  H   15.944296  14.743898  13.511182  12.298729  11.082951
    34  H   17.207142  16.131174  14.763667  13.699182  12.321372
    35  H   18.384222  17.192298  15.946103  14.744816  13.509857
    36  H   19.665620  18.581934  17.220824  16.145348  14.776274
    37  H   20.851356  19.666423  18.409916  17.217470  15.968770
    38  H   21.704400  20.572245  19.254378  18.122073  16.802483
                    6          7          8          9         10
     6  C    0.000000
     7  C    1.477724   0.000000
     8  C    2.453366   1.339598   0.000000
     9  C    3.821025   2.451196   1.477749   0.000000
    10  C    4.906978   3.665216   2.453618   1.339568   0.000000
    11  C    6.248516   4.902234   3.821127   2.451047   1.477792
    12  C    7.360612   6.091055   4.907269   3.665102   2.453659
    13  C    8.690049   7.353358   6.248790   4.902187   3.821266
    14  C    9.814018   8.531880   7.360698   6.090788   4.907105
    15  C   11.136597   9.804817   8.690585   7.353670   6.249106
    16  C   12.266986  10.977484   9.813694   8.531411   7.360122
    17  C   13.584867  12.255979  11.136645   9.804857   8.690338
    18  C   14.717283  13.422615  12.264028  10.974289   9.810486
    19  H    7.000052   8.319372   9.452811  10.767194  11.905936
    20  H    6.307432   7.435525   8.687772   9.865958  11.098870
    21  H    5.060998   6.496040   7.476822   8.881027   9.912237
    22  H    3.992423   4.997045   6.282526   7.407318   8.661034
    23  H    2.707312   4.182276   5.052405   6.487250   7.468831
    24  H    2.103428   2.657738   3.990973   4.994493   6.280364
    25  H    1.087679   2.222691   2.708061   4.182984   5.053955
    26  H    2.221767   1.087728   2.103263   2.656920   3.990202
    27  H    2.661923   2.104029   1.087681   2.222901   2.708765
    28  H    4.178258   2.702952   2.221674   1.087730   2.103124
    29  H    5.004955   3.995050   2.662404   2.104042   1.087682
    30  H    6.479580   5.042168   4.178103   2.702735   2.221720
    31  H    7.421191   6.288197   5.005389   3.994940   2.662354
    32  H    8.861543   7.452662   6.479997   5.042397   4.178533
    33  H    9.856103   8.669313   7.420796   6.287383   5.004639
    34  H   11.274266   9.883656   8.863244   7.454212   6.481500
    35  H   12.298223  11.081570   9.855062   8.668120   7.419519
    36  H   13.712741  12.334559  11.287633   9.897158   8.876093
    37  H   14.768575  13.532423  12.321416  11.104167   9.877900
    38  H   15.671217  14.350956  13.220504  11.899778  10.770253
                   11         12         13         14         15
    11  C    0.000000
    12  C    1.339535   0.000000
    13  C    2.451150   1.477839   0.000000
    14  C    3.664996   2.453454   1.339514   0.000000
    15  C    4.902647   3.821402   2.451504   1.477877   0.000000
    16  C    6.090555   4.906483   3.664912   2.453033   1.339466
    17  C    7.353850   6.248615   4.902715   3.820784   2.451214
    18  C    8.528403   7.356868   6.087540   4.903431   3.661492
    19  H   13.216443  14.359117  15.666611  16.812084  18.117557
    20  H   12.303655  13.524039  14.745147  15.956689  17.189202
    21  H   11.295637  12.355674  13.724415  14.802867  16.161082
    22  H    9.836660  11.070870  12.273871  13.495103  14.715450
    23  H    8.872606   9.904594  11.287660  12.347958  13.716816
    24  H    7.404120   8.658264   9.833286  11.067639  12.270833
    25  H    6.488536   7.470769   8.874355   9.906430  11.289716
    26  H    4.993084   6.279113   7.402629   8.656720   9.832242
    27  H    4.183691   5.054985   6.489562   7.471598   8.875509
    28  H    2.656458   3.989729   4.992645   6.278539   7.402761
    29  H    2.223047   2.709005   4.183984   5.054904   6.489772
    30  H    1.087727   2.103056   2.656544   3.989751   4.993436
    31  H    2.103955   1.087683   2.223070   2.708644   4.183716
    32  H    2.703128   2.221902   1.087722   2.103097   2.657219
    33  H    3.994338   2.661744   2.103797   1.087682   2.222942
    34  H    5.043985   4.179592   2.704192   2.222264   1.087733
    35  H    6.286578   5.003594   3.994085   2.661421   2.103999
    36  H    7.467548   6.493473   5.056519   4.190045   2.714825
    37  H    8.690704   7.442272   6.308725   5.026238   4.013989
    38  H    9.448822   8.321266   6.997967   5.875539   4.547303
                   16         17         18         19         20
    16  C    0.000000
    17  C    1.477372   0.000000
    18  C    2.450408   1.334949   0.000000
    19  H   19.264644  20.568428  21.714510   0.000000
    20  H   18.393775  19.634505  20.831060   1.869513   0.000000
    21  H   17.251768  18.601792  19.699517   2.403505   3.067179
    22  H   15.927107  17.159214  18.361059   3.787324   2.478838
    23  H   14.794667  16.152950  17.241084   4.688920   4.578975
    24  H   13.491610  14.712329  15.920711   6.093988   4.930015
    25  H   12.349245  13.718234  14.793472   7.085358   6.673667
    26  H   11.066012  12.269811  13.487131   8.480726   7.378895
    27  H    9.906598  11.290058  12.346929   9.512345   8.952839
    28  H    8.656261   9.832505  11.062704  10.894827   9.826437
    29  H    7.470725   8.874725   9.903281  11.951550  11.305434
    30  H    6.278881   7.403791   8.653649  13.321612  12.273362
    31  H    5.053615   6.488350   7.467138  14.396298  13.693101
    32  H    3.990276   4.994452   6.276130  15.755952  14.720672
    33  H    2.707749   4.182372   5.050815  16.843255  16.099406
    34  H    2.103117   2.657288   3.986096  18.195949  17.169496
    35  H    1.087695   2.222069   2.706652  19.291334  18.517035
    36  H    2.228217   1.086776   2.089889  20.650826  19.630854
    37  H    2.682039   2.112395   1.086032  21.764994  20.966296
    38  H    3.440231   2.099253   1.085236  22.659892  21.733663
                   21         22         23         24         25
    21  H    0.000000
    22  H    3.175186   0.000000
    23  H    2.464373   3.069811   0.000000
    24  H    4.774813   2.451181   3.171676   0.000000
    25  H    4.919516   4.563197   2.455145   3.069618   0.000000
    26  H    6.894199   4.900059   4.766635   2.448880   3.171613
    27  H    7.375996   6.652803   4.911630   4.562569   2.456489
    28  H    9.180045   7.347599   6.884831   4.896428   4.766669
    29  H    9.833503   8.929486   7.369147   6.651729   4.914016
    30  H   11.534087   9.794525   9.170764   7.343369   6.885363
    31  H   12.291143  11.280062   9.826807   8.927579   7.371694
    32  H   13.922471  12.241844  11.525687   9.790710   9.172251
    33  H   14.747890  13.665657  12.283580  11.276917   9.828494
    34  H   16.331141  14.690681  13.915598  12.239576  11.528613
    35  H   17.203689  16.070639  14.739411  13.661841  12.284355
    36  H   18.763182  17.152057  16.335992  14.700981  13.929993
    37  H   19.684037  18.511476  17.219800  16.090286  14.764787
    38  H   20.676604  19.258459  18.223142  16.811541  15.781779
                   26         27         28         29         30
    26  H    0.000000
    27  H    3.069581   0.000000
    28  H    2.447553   3.171684   0.000000
    29  H    4.562292   2.457534   3.069509   0.000000
    30  H    4.894507   4.767071   2.446963   3.171799   0.000000
    31  H    6.650853   4.915228   4.561874   2.457703   3.069417
    32  H    7.341870   6.886471   4.894343   4.767593   2.447389
    33  H    8.925741   7.372052   6.649787   4.914543   4.561451
    34  H    9.790765   9.174505   7.343261   6.887800   4.896322
    35  H   11.274691   9.827941   8.924588   7.370453   6.649565
    36  H   12.252198  11.541895   9.804716   9.186290   7.357791
    37  H   13.682950  12.308413  11.296537   9.850958   8.946590
    38  H   14.368716  13.343363  11.930372  10.910717   9.498447
                   31         32         33         34         35
    31  H    0.000000
    32  H    3.171919   0.000000
    33  H    2.456848   3.069344   0.000000
    34  H    4.768181   2.448938   3.172069   0.000000
    35  H    4.912770   4.561759   2.455926   3.069525   0.000000
    36  H    6.898028   4.910414   4.776440   2.461477   3.175520
    37  H    7.393299   6.670314   4.936470   4.577790   2.480557
    38  H    8.490384   7.078030   6.098460   4.686202   3.788592
                   36         37         38
    36  H    0.000000
    37  H    3.067008   0.000000
    38  H    2.402993   1.869589   0.000000
 Stoichiometry    C18H20
 Framework group  C1[X(C18H20)]
 Deg. of freedom   108
 Full point group                 C1      NOp   1
 Largest Abelian subgroup         C1      NOp   1
 Largest concise Abelian subgroup C1      NOp   1
                         Standard orientation:                         
 ---------------------------------------------------------------------
 Center     Atomic      Atomic             Coordinates (Angstroms)
 Number     Number       Type             X           Y           Z
 ---------------------------------------------------------------------
      1          6           0       10.379604   -0.316151    0.003575
      2          6           0        9.236385    0.373280    0.002542
      3          6           0        7.929581   -0.315580    0.001888
      4          6           0        6.784480    0.379552    0.000811
      5          6           0        5.477689   -0.310360    0.000148
      6          6           0        4.331469    0.383011   -0.000932
      7          6           0        3.026161   -0.309693   -0.001537
      8          6           0        1.878105    0.380589   -0.002427
      9          6           0        0.574974   -0.316256   -0.002826
     10          6           0       -0.575491    0.369945   -0.003214
     11          6           0       -1.876023   -0.331828   -0.003234
     12          6           0       -3.029068    0.349962   -0.002832
     13          6           0       -4.327047   -0.356621   -0.002369
     14          6           0       -5.482354    0.321288   -0.001083
     15          6           0       -6.778335   -0.389031   -0.000176
     16          6           0       -7.935135    0.286231    0.001810
     17          6           0       -9.229262   -0.426414    0.002984
     18          6           0      -10.385132    0.241454    0.005292
     19          1           0       11.329354    0.208871    0.004035
     20          1           0       10.380979   -1.402236    0.003964
     21          1           0        9.276707    1.459261    0.002176
     22          1           0        7.902141   -1.402971    0.002284
     23          1           0        6.812347    1.466886    0.000415
     24          1           0        5.450967   -1.397756    0.000566
     25          1           0        4.357205    1.470385   -0.001326
     26          1           0        3.002087   -1.397155   -0.001157
     27          1           0        1.900718    1.468035   -0.002728
     28          1           0        0.554544   -1.403794   -0.002609
     29          1           0       -0.556794    1.457467   -0.003289
     30          1           0       -1.892368   -1.419432   -0.003314
     31          1           0       -3.014416    1.437547   -0.002570
     32          1           0       -4.339632   -1.444271   -0.002820
     33          1           0       -5.471096    1.408912   -0.000460
     34          1           0       -6.788354   -1.476717   -0.000957
     35          1           0       -7.926770    1.373893    0.002707
     36          1           0       -9.249562   -1.512999    0.002033
     37          1           0      -10.406886    1.327268    0.006356
     38          1           0      -11.324791   -0.301478    0.006173
 ---------------------------------------------------------------------
 Rotational constants (GHZ):           8.0336217           0.0519779           0.0516438
 Standard basis: 6-31G(d,p) (6D, 7F)
 There are   370 symmetry adapted cartesian basis functions of A   symmetry.
 There are   370 symmetry adapted basis functions of A   symmetry.
   370 basis functions,   644 primitive gaussians,   370 cartesian basis functions
    64 alpha electrons       64 beta electrons
       nuclear repulsion energy       939.7696857982 Hartrees.
 NAtoms=   38 NActive=   38 NUniq=   38 SFac= 1.00D+00 NAtFMM=   60 NAOKFM=F Big=F
 Integral buffers will be    131072 words long.
 Raffenetti 2 integral format.
 Two-electron integral symmetry is turned on.
 One-electron integrals computed using PRISM.
 NBasis=   370 RedAO= T EigKep=  1.20D-03  NBF=   370
 NBsUse=   370 1.00D-06 EigRej= -1.00D+00 NBFU=   370
 ExpMin= 1.61D-01 ExpMax= 3.05D+03 ExpMxC= 4.57D+02 IAcc=3 IRadAn=         5 AccDes= 0.00D+00
 Harris functional with IExCor=  402 and IRadAn=       5 diagonalized for initial guess.
 HarFok:  IExCor=  402 AccDes= 0.00D+00 IRadAn=         5 IDoV= 1 UseB2=F ITyADJ=14
 ICtDFT=  3500011 ScaDFX=  1.000000  1.000000  1.000000  1.000000
 FoFCou: FMM=F IPFlag=           0 FMFlag=      100000 FMFlg1=           0
         NFxFlg=           0 DoJE=T BraDBF=F KetDBF=T FulRan=T
         wScrn=  0.000000 ICntrl=       500 IOpCl=  0 I1Cent=   200000004 NGrid=           0
         NMat0=    1 NMatS0=      1 NMatT0=    0 NMatD0=    1 NMtDS0=    0 NMtDT0=    0
 Petite list used in FoFCou.
 Requested convergence on RMS density matrix=1.00D-08 within 128 cycles.
 Requested convergence on MAX density matrix=1.00D-06.
 Requested convergence on             energy=1.00D-06.
 No special actions if energy rises.
 Integral accuracy reduced to 1.0D-05 until final iterations.
 Initial convergence to 1.0D-05 achieved.  Increase integral accuracy.
 SCF Done:  E(RB3LYP) =  -697.856283217     A.U. after   13 cycles
            NFock= 13  Conv=0.52D-08     -V/T= 2.0100

 **********************************************************************

            Population analysis using the SCF Density.

 **********************************************************************

 Orbital symmetries:
       Occupied  (A) (A) (A) (A) (A) (A) (A) (A) (A) (A) (A) (A)
                 (A) (A) (A) (A) (A) (A) (A) (A) (A) (A) (A) (A)
                 (A) (A) (A) (A) (A) (A) (A) (A) (A) (A) (A) (A)
                 (A) (A) (A) (A) (A) (A) (A) (A) (A) (A) (A) (A)
                 (A) (A) (A) (A) (A) (A) (A) (A) (A) (A) (A) (A)
                 (A) (A) (A) (A)
       Virtual   (A) (A) (A) (A) (A) (A) (A) (A) (A) (A) (A) (A)
                 (A) (A) (A) (A) (A) (A) (A) (A) (A) (A) (A) (A)
                 (A) (A) (A) (A) (A) (A) (A) (A) (A) (A) (A) (A)
                 (A) (A) (A) (A) (A) (A) (A) (A) (A) (A) (A) (A)
                 (A) (A) (A) (A) (A) (A) (A) (A) (A) (A) (A) (A)
                 (A) (A) (A) (A) (A) (A) (A) (A) (A) (A) (A) (A)
                 (A) (A) (A) (A) (A) (A) (A) (A) (A) (A) (A) (A)
                 (A) (A) (A) (A) (A) (A) (A) (A) (A) (A) (A) (A)
                 (A) (A) (A) (A) (A) (A) (A) (A) (A) (A) (A) (A)
                 (A) (A) (A) (A) (A) (A) (A) (A) (A) (A) (A) (A)
                 (A) (A) (A) (A) (A) (A) (A) (A) (A) (A) (A) (A)
                 (A) (A) (A) (A) (A) (A) (A) (A) (A) (A) (A) (A)
                 (A) (A) (A) (A) (A) (A) (A) (A) (A) (A) (A) (A)
                 (A) (A) (A) (A) (A) (A) (A) (A) (A) (A) (A) (A)
                 (A) (A) (A) (A) (A) (A) (A) (A) (A) (A) (A) (A)
                 (A) (A) (A) (A) (A) (A) (A) (A) (A) (A) (A) (A)
                 (A) (A) (A) (A) (A) (A) (A) (A) (A) (A) (A) (A)
                 (A) (A) (A) (A) (A) (A) (A) (A) (A) (A) (A) (A)
                 (A) (A) (A) (A) (A) (A) (A) (A) (A) (A) (A) (A)
                 (A) (A) (A) (A) (A) (A) (A) (A) (A) (A) (A) (A)
                 (A) (A) (A) (A) (A) (A) (A) (A) (A) (A) (A) (A)
                 (A) (A) (A) (A) (A) (A) (A) (A) (A) (A) (A) (A)
                 (A) (A) (A) (A) (A) (A) (A) (A) (A) (A) (A) (A)
                 (A) (A) (A) (A) (A) (A) (A) (A) (A) (A) (A) (A)
                 (A) (A) (A) (A) (A) (A) (A) (A) (A) (A) (A) (A)
                 (A) (A) (A) (A) (A) (A)
 The electronic state is 1-A.
 Alpha  occ. eigenvalues --  -10.19151 -10.19135 -10.19126 -10.19118 -10.19113
 Alpha  occ. eigenvalues --  -10.19106 -10.19100 -10.19095 -10.19086 -10.19035
 Alpha  occ. eigenvalues --  -10.19026 -10.19019 -10.19013 -10.19004 -10.18955
 Alpha  occ. eigenvalues --  -10.18934 -10.17934 -10.17913  -0.82837  -0.82248
 Alpha  occ. eigenvalues --   -0.81288  -0.79976  -0.78327  -0.76368  -0.74149
 Alpha  occ. eigenvalues --   -0.71792  -0.69680  -0.63108  -0.60585  -0.57623
 Alpha  occ. eigenvalues --   -0.56968  -0.56475  -0.55695  -0.55144  -0.54671
 Alpha  occ. eigenvalues --   -0.54164  -0.48527  -0.47906  -0.47150  -0.46247
 Alpha  occ. eigenvalues --   -0.44664  -0.44450  -0.41685  -0.41607  -0.40029
 Alpha  occ. eigenvalues --   -0.39280  -0.38507  -0.37888  -0.37490  -0.37415
 Alpha  occ. eigenvalues --   -0.36775  -0.36139  -0.35318  -0.35156  -0.34403
 Alpha  occ. eigenvalues --   -0.34140  -0.33168  -0.33084  -0.31469  -0.29323
 Alpha  occ. eigenvalues --   -0.26755  -0.23825  -0.20684  -0.17814
 Alpha virt. eigenvalues --   -0.06781  -0.03702  -0.00142   0.03244   0.06096
 Alpha virt. eigenvalues --    0.08175   0.08376   0.09220   0.09392   0.09874
 Alpha virt. eigenvalues --    0.09940   0.10525   0.12176   0.12610   0.12664
 Alpha virt. eigenvalues --    0.13856   0.14076   0.14367   0.14613   0.14942
 Alpha virt. eigenvalues --    0.15522   0.15584   0.16408   0.16923   0.18627
 Alpha virt. eigenvalues --    0.19749   0.19844   0.20531   0.21032   0.25783
 Alpha virt. eigenvalues --    0.28767   0.31026   0.31061   0.31656   0.33879
 Alpha virt. eigenvalues --    0.34319   0.34650   0.36393   0.36573   0.37346
 Alpha virt. eigenvalues --    0.38160   0.40250   0.41594   0.42085   0.42654
 Alpha virt. eigenvalues --    0.43069   0.47945   0.48231   0.51725   0.52214
 Alpha virt. eigenvalues --    0.53051   0.53219   0.54254   0.54382   0.55811
 Alpha virt. eigenvalues --    0.56900   0.57018   0.57757   0.58496   0.58760
 Alpha virt. eigenvalues --    0.58895   0.59079   0.59189   0.59888   0.60201
 Alpha virt. eigenvalues --    0.60500   0.61792   0.61795   0.61984   0.63477
 Alpha virt. eigenvalues --    0.63807   0.64330   0.65198   0.66011   0.66034
 Alpha virt. eigenvalues --    0.67653   0.67923   0.69251   0.69612   0.69926
 Alpha virt. eigenvalues --    0.72462   0.72533   0.75689   0.75749   0.78670
 Alpha virt. eigenvalues --    0.79216   0.80377   0.82016   0.83299   0.83796
 Alpha virt. eigenvalues --    0.84560   0.84831   0.84959   0.85536   0.86186
 Alpha virt. eigenvalues --    0.86680   0.86859   0.87161   0.87625   0.87894
 Alpha virt. eigenvalues --    0.88703   0.89759   0.91211   0.91413   0.92122
 Alpha virt. eigenvalues --    0.92496   0.93333   0.95232   0.96659   0.98481
 Alpha virt. eigenvalues --    1.02866   1.03034   1.03152   1.04822   1.05104
 Alpha virt. eigenvalues --    1.06360   1.06896   1.08231   1.09587   1.09961
 Alpha virt. eigenvalues --    1.11388   1.13288   1.16062   1.17146   1.21133
 Alpha virt. eigenvalues --    1.22902   1.25873   1.29414   1.29643   1.29693
 Alpha virt. eigenvalues --    1.30258   1.30624   1.30836   1.31397   1.31664
 Alpha virt. eigenvalues --    1.31803   1.32726   1.33063   1.33340   1.33936
 Alpha virt. eigenvalues --    1.34689   1.36098   1.37358   1.38890   1.39524
 Alpha virt. eigenvalues --    1.40597   1.42473   1.44500   1.46595   1.47566
 Alpha virt. eigenvalues --    1.48597   1.50297   1.50483   1.51477   1.52026
 Alpha virt. eigenvalues --    1.53123   1.53236   1.76323   1.76512   1.76600
 Alpha virt. eigenvalues --    1.76602   1.77068   1.77226   1.78117   1.78304
 Alpha virt. eigenvalues --    1.82794   1.85289   1.86219   1.86283   1.89051
 Alpha virt. eigenvalues --    1.91756   1.92455   1.92694   1.93571   1.93592
 Alpha virt. eigenvalues --    1.94326   1.94748   1.96232   1.96668   1.98314
 Alpha virt. eigenvalues --    1.98344   1.98372   2.02917   2.03159   2.04306
 Alpha virt. eigenvalues --    2.06913   2.07088   2.09151   2.09970   2.10119
 Alpha virt. eigenvalues --    2.11931   2.13017   2.15904   2.17164   2.17541
 Alpha virt. eigenvalues --    2.18421   2.18713   2.19917   2.20810   2.22709
 Alpha virt. eigenvalues --    2.23351   2.23702   2.23720   2.26013   2.28822
 Alpha virt. eigenvalues --    2.29352   2.31793   2.34803   2.37276   2.38230
 Alpha virt. eigenvalues --    2.41575   2.41610   2.44767   2.45559   2.46718
 Alpha virt. eigenvalues --    2.47346   2.48352   2.48443   2.48830   2.50234
 Alpha virt. eigenvalues --    2.50467   2.50736   2.52128   2.52310   2.52991
 Alpha virt. eigenvalues --    2.54055   2.54190   2.55603   2.55834   2.57278
 Alpha virt. eigenvalues --    2.59446   2.59923   2.61154   2.61254   2.62697
 Alpha virt. eigenvalues --    2.63375   2.63855   2.66439   2.67009   2.67191
 Alpha virt. eigenvalues --    2.69175   2.69398   2.69559   2.70617   2.70744
 Alpha virt. eigenvalues --    2.71259   2.72325   2.73450   2.74502   2.78568
 Alpha virt. eigenvalues --    2.79493   2.83299   2.83886   2.85615   2.87969
 Alpha virt. eigenvalues --    2.88467   2.91205   2.91363   2.92154   2.92302
 Alpha virt. eigenvalues --    2.93921   2.94223   2.96679   2.96778   2.98737
 Alpha virt. eigenvalues --    2.98942   2.99945   3.00123   3.28022   3.28037
 Alpha virt. eigenvalues --    3.35280   3.35845   3.36894   3.38421   3.40252
 Alpha virt. eigenvalues --    3.42388   3.45148   3.48739   3.52508   3.52916
 Alpha virt. eigenvalues --    3.56966   3.59698   3.62174   3.63776   3.66528
 Alpha virt. eigenvalues --    3.67157   3.71016   3.71094   4.13709   4.13810
 Alpha virt. eigenvalues --    4.13982   4.14243   4.14791   4.15804   4.17443
 Alpha virt. eigenvalues --    4.19856   4.24651   4.27032   4.32643   4.38882
 Alpha virt. eigenvalues --    4.45827   4.53154   4.60354   4.66815   4.71938
 Alpha virt. eigenvalues --    4.75225
          Condensed to atoms (all electrons):
               1          2          3          4          5          6
     1  C    4.965570   0.618706  -0.031445   0.002710  -0.000276   0.000005
     2  C    0.618706   4.740024   0.421034  -0.020031   0.004041  -0.000269
     3  C   -0.031445   0.421034   4.861426   0.577782  -0.018318   0.002520
     4  C    0.002710  -0.020031   0.577782   4.868658   0.392988  -0.016685
     5  C   -0.000276   0.004041  -0.018318   0.392988   4.887407   0.563605
     6  C    0.000005  -0.000269   0.002520  -0.016685   0.563605   4.881170
     7  C   -0.000000   0.000002  -0.000255   0.003644  -0.017146   0.396166
     8  C   -0.000000  -0.000000   0.000004  -0.000256   0.002553  -0.017533
     9  C    0.000000   0.000000  -0.000000   0.000002  -0.000256   0.003673
    10  C    0.000000   0.000000  -0.000000  -0.000000   0.000004  -0.000256
    11  C   -0.000000   0.000000   0.000000   0.000000  -0.000000   0.000002
    12  C    0.000000  -0.000000   0.000000   0.000000  -0.000000  -0.000000
    13  C    0.000000   0.000000  -0.000000   0.000000   0.000000   0.000000
    14  C    0.000000   0.000000   0.000000  -0.000000   0.000000   0.000000
    15  C    0.000000   0.000000   0.000000   0.000000  -0.000000   0.000000
    16  C    0.000000   0.000000   0.000000   0.000000   0.000000  -0.000000
    17  C    0.000000   0.000000   0.000000   0.000000   0.000000   0.000000
    18  C    0.000000   0.000000   0.000000   0.000000   0.000000   0.000000
    19  H    0.369497  -0.020439   0.004033  -0.000224   0.000003  -0.000000
    20  H    0.382758  -0.035912  -0.012744   0.000562  -0.000000  -0.000000
    21  H   -0.050989   0.381943  -0.047468  -0.005757   0.000268  -0.000005
    22  H   -0.005174  -0.046716   0.379529  -0.051054  -0.009578   0.000551
    23  H    0.000485  -0.009049  -0.053570   0.381307  -0.047987  -0.005250
    24  H   -0.000003   0.000240  -0.005250  -0.048075   0.381139  -0.052744
    25  H    0.000000  -0.000004   0.000529  -0.009194  -0.052897   0.380856
    26  H    0.000000  -0.000000  -0.000004   0.000251  -0.005304  -0.047987
    27  H    0.000000   0.000000  -0.000000  -0.000004   0.000536  -0.009253
    28  H   -0.000000  -0.000000   0.000000  -0.000000  -0.000004   0.000253
    29  H    0.000000  -0.000000   0.000000   0.000000  -0.000000  -0.000004
    30  H   -0.000000   0.000000   0.000000  -0.000000   0.000000  -0.000000
    31  H    0.000000  -0.000000   0.000000  -0.000000   0.000000   0.000000
    32  H    0.000000   0.000000  -0.000000   0.000000   0.000000  -0.000000
    33  H    0.000000   0.000000   0.000000  -0.000000   0.000000  -0.000000
    34  H    0.000000   0.000000   0.000000   0.000000  -0.000000   0.000000
    35  H    0.000000   0.000000   0.000000   0.000000   0.000000  -0.000000
    36  H    0.000000   0.000000   0.000000   0.000000   0.000000   0.000000
    37  H    0.000000   0.000000   0.000000   0.000000   0.000000   0.000000
    38  H    0.000000   0.000000   0.000000   0.000000   0.000000   0.000000
               7          8          9         10         11         12
     1  C   -0.000000  -0.000000   0.000000   0.000000  -0.000000   0.000000
     2  C    0.000002  -0.000000   0.000000   0.000000   0.000000  -0.000000
     3  C   -0.000255   0.000004  -0.000000  -0.000000   0.000000   0.000000
     4  C    0.003644  -0.000256   0.000002  -0.000000   0.000000   0.000000
     5  C   -0.017146   0.002553  -0.000256   0.000004  -0.000000  -0.000000
     6  C    0.396166  -0.017533   0.003673  -0.000256   0.000002  -0.000000
     7  C    4.881641   0.564298  -0.017280   0.002566  -0.000255   0.000004
     8  C    0.564298   4.881215   0.397233  -0.017679   0.003673  -0.000256
     9  C   -0.017280   0.397233   4.880698   0.564140  -0.017223   0.002562
    10  C    0.002566  -0.017679   0.564140   4.881710   0.397232  -0.017713
    11  C   -0.000255   0.003673  -0.017223   0.397232   4.880278   0.564321
    12  C    0.000004  -0.000256   0.002562  -0.017713   0.564321   4.882547
    13  C   -0.000000   0.000002  -0.000256   0.003678  -0.017134   0.396163
    14  C   -0.000000  -0.000000   0.000004  -0.000256   0.002543  -0.017483
    15  C    0.000000   0.000000  -0.000000   0.000002  -0.000256   0.003651
    16  C    0.000000   0.000000  -0.000000  -0.000000   0.000004  -0.000255
    17  C   -0.000000   0.000000   0.000000   0.000000  -0.000000   0.000002
    18  C    0.000000  -0.000000   0.000000   0.000000  -0.000000  -0.000000
    19  H    0.000000  -0.000000   0.000000   0.000000   0.000000   0.000000
    20  H    0.000000   0.000000  -0.000000   0.000000  -0.000000   0.000000
    21  H   -0.000000   0.000000  -0.000000   0.000000   0.000000  -0.000000
    22  H   -0.000004  -0.000000   0.000000   0.000000  -0.000000   0.000000
    23  H    0.000250  -0.000004  -0.000000   0.000000  -0.000000   0.000000
    24  H   -0.009317   0.000545  -0.000004  -0.000000   0.000000   0.000000
    25  H   -0.047845  -0.005271   0.000247  -0.000004  -0.000000   0.000000
    26  H    0.380943  -0.052823  -0.009337   0.000546  -0.000004  -0.000000
    27  H   -0.052711   0.380758  -0.047817  -0.005269   0.000246  -0.000004
    28  H   -0.005314  -0.047998   0.380893  -0.052860  -0.009350   0.000547
    29  H    0.000536  -0.009256  -0.052679   0.380769  -0.047812  -0.005265
    30  H   -0.000004   0.000254  -0.005314  -0.047999   0.380866  -0.052880
    31  H   -0.000000  -0.000004   0.000536  -0.009259  -0.052662   0.380829
    32  H    0.000000  -0.000000  -0.000004   0.000254  -0.005305  -0.047989
    33  H    0.000000   0.000000  -0.000000  -0.000004   0.000539  -0.009268
    34  H    0.000000  -0.000000   0.000000  -0.000000  -0.000004   0.000254
    35  H    0.000000  -0.000000   0.000000   0.000000  -0.000000  -0.000003
    36  H   -0.000000   0.000000   0.000000  -0.000000   0.000000  -0.000000
    37  H    0.000000  -0.000000   0.000000  -0.000000   0.000000   0.000000
    38  H    0.000000   0.000000   0.000000   0.000000  -0.000000   0.000000
              13         14         15         16         17         18
     1  C    0.000000   0.000000   0.000000   0.000000   0.000000   0.000000
     2  C    0.000000   0.000000   0.000000   0.000000   0.000000   0.000000
     3  C   -0.000000   0.000000   0.000000   0.000000   0.000000   0.000000
     4  C    0.000000  -0.000000   0.000000   0.000000   0.000000   0.000000
     5  C    0.000000   0.000000  -0.000000   0.000000   0.000000   0.000000
     6  C    0.000000   0.000000   0.000000  -0.000000   0.000000   0.000000
     7  C   -0.000000  -0.000000   0.000000   0.000000  -0.000000   0.000000
     8  C    0.000002  -0.000000   0.000000   0.000000   0.000000  -0.000000
     9  C   -0.000256   0.000004  -0.000000  -0.000000   0.000000   0.000000
    10  C    0.003678  -0.000256   0.000002  -0.000000   0.000000   0.000000
    11  C   -0.017134   0.002543  -0.000256   0.000004  -0.000000  -0.000000
    12  C    0.396163  -0.017483   0.003651  -0.000255   0.000002  -0.000000
    13  C    4.880468   0.563644  -0.016405   0.002507  -0.000268   0.000005
    14  C    0.563644   4.888078   0.392968  -0.018516   0.004050  -0.000277
    15  C   -0.016405   0.392968   4.868288   0.577831  -0.019885   0.002692
    16  C    0.002507  -0.018516   0.577831   4.861758   0.421027  -0.031504
    17  C   -0.000268   0.004050  -0.019885   0.421027   4.739859   0.618751
    18  C    0.000005  -0.000277   0.002692  -0.031504   0.618751   4.965733
    19  H    0.000000   0.000000   0.000000   0.000000   0.000000   0.000000
    20  H    0.000000   0.000000   0.000000   0.000000   0.000000   0.000000
    21  H    0.000000   0.000000   0.000000   0.000000   0.000000   0.000000
    22  H   -0.000000   0.000000   0.000000   0.000000   0.000000   0.000000
    23  H    0.000000  -0.000000   0.000000   0.000000   0.000000   0.000000
    24  H   -0.000000   0.000000  -0.000000   0.000000   0.000000   0.000000
    25  H   -0.000000   0.000000   0.000000  -0.000000   0.000000   0.000000
    26  H    0.000000   0.000000  -0.000000   0.000000  -0.000000   0.000000
    27  H   -0.000000   0.000000  -0.000000   0.000000   0.000000  -0.000000
    28  H   -0.000004  -0.000000   0.000000   0.000000  -0.000000   0.000000
    29  H    0.000246  -0.000004  -0.000000   0.000000  -0.000000  -0.000000
    30  H   -0.009347   0.000547  -0.000004  -0.000000   0.000000   0.000000
    31  H   -0.047831  -0.005261   0.000245  -0.000004  -0.000000   0.000000
    32  H    0.380927  -0.053024  -0.009270   0.000537  -0.000004   0.000000
    33  H   -0.052632   0.381059  -0.047977  -0.005219   0.000236  -0.000003
    34  H   -0.005268  -0.048071   0.381334  -0.053642  -0.009096   0.000489
    35  H    0.000548  -0.009558  -0.051004   0.379491  -0.046684  -0.005155
    36  H   -0.000005   0.000269  -0.005764  -0.047490   0.381936  -0.051010
    37  H   -0.000000  -0.000000   0.000563  -0.012740  -0.035898   0.382751
    38  H   -0.000000   0.000003  -0.000224   0.004039  -0.020423   0.369477
              19         20         21         22         23         24
     1  C    0.369497   0.382758  -0.050989  -0.005174   0.000485  -0.000003
     2  C   -0.020439  -0.035912   0.381943  -0.046716  -0.009049   0.000240
     3  C    0.004033  -0.012744  -0.047468   0.379529  -0.053570  -0.005250
     4  C   -0.000224   0.000562  -0.005757  -0.051054   0.381307  -0.048075
     5  C    0.000003  -0.000000   0.000268  -0.009578  -0.047987   0.381139
     6  C   -0.000000  -0.000000  -0.000005   0.000551  -0.005250  -0.052744
     7  C    0.000000   0.000000  -0.000000  -0.000004   0.000250  -0.009317
     8  C   -0.000000   0.000000   0.000000  -0.000000  -0.000004   0.000545
     9  C    0.000000  -0.000000  -0.000000   0.000000  -0.000000  -0.000004
    10  C    0.000000   0.000000   0.000000   0.000000   0.000000  -0.000000
    11  C    0.000000  -0.000000   0.000000  -0.000000  -0.000000   0.000000
    12  C    0.000000   0.000000  -0.000000   0.000000   0.000000   0.000000
    13  C    0.000000   0.000000   0.000000  -0.000000   0.000000  -0.000000
    14  C    0.000000   0.000000   0.000000   0.000000  -0.000000   0.000000
    15  C    0.000000   0.000000   0.000000   0.000000   0.000000  -0.000000
    16  C    0.000000   0.000000   0.000000   0.000000   0.000000   0.000000
    17  C    0.000000   0.000000   0.000000   0.000000   0.000000   0.000000
    18  C    0.000000   0.000000   0.000000   0.000000   0.000000   0.000000
    19  H    0.602125  -0.042391  -0.008094   0.000026  -0.000008   0.000000
    20  H   -0.042391   0.601547   0.005980   0.004591   0.000014   0.000001
    21  H   -0.008094   0.005980   0.631793   0.004341   0.004183   0.000005
    22  H    0.000026   0.004591   0.004341   0.631678   0.006058   0.004064
    23  H   -0.000008   0.000014   0.004183   0.006058   0.634171   0.004273
    24  H    0.000000   0.000001   0.000005   0.004064   0.004273   0.634352
    25  H   -0.000000  -0.000000   0.000001   0.000014   0.004055   0.006065
    26  H    0.000000  -0.000000  -0.000000   0.000001   0.000005   0.004072
    27  H   -0.000000   0.000000  -0.000000  -0.000000   0.000001   0.000014
    28  H    0.000000   0.000000   0.000000  -0.000000  -0.000000   0.000001
    29  H   -0.000000   0.000000   0.000000   0.000000  -0.000000  -0.000000
    30  H    0.000000   0.000000   0.000000   0.000000   0.000000  -0.000000
    31  H    0.000000   0.000000   0.000000   0.000000   0.000000   0.000000
    32  H    0.000000   0.000000   0.000000   0.000000   0.000000   0.000000
    33  H    0.000000   0.000000   0.000000   0.000000   0.000000   0.000000
    34  H    0.000000   0.000000   0.000000   0.000000   0.000000   0.000000
    35  H    0.000000   0.000000   0.000000   0.000000   0.000000   0.000000
    36  H    0.000000   0.000000   0.000000   0.000000   0.000000   0.000000
    37  H    0.000000   0.000000   0.000000   0.000000   0.000000   0.000000
    38  H    0.000000   0.000000   0.000000   0.000000   0.000000   0.000000
              25         26         27         28         29         30
     1  C    0.000000   0.000000   0.000000  -0.000000   0.000000  -0.000000
     2  C   -0.000004  -0.000000   0.000000  -0.000000  -0.000000   0.000000
     3  C    0.000529  -0.000004  -0.000000   0.000000   0.000000   0.000000
     4  C   -0.009194   0.000251  -0.000004  -0.000000   0.000000  -0.000000
     5  C   -0.052897  -0.005304   0.000536  -0.000004  -0.000000   0.000000
     6  C    0.380856  -0.047987  -0.009253   0.000253  -0.000004  -0.000000
     7  C   -0.047845   0.380943  -0.052711  -0.005314   0.000536  -0.000004
     8  C   -0.005271  -0.052823   0.380758  -0.047998  -0.009256   0.000254
     9  C    0.000247  -0.009337  -0.047817   0.380893  -0.052679  -0.005314
    10  C   -0.000004   0.000546  -0.005269  -0.052860   0.380769  -0.047999
    11  C   -0.000000  -0.000004   0.000246  -0.009350  -0.047812   0.380866
    12  C    0.000000  -0.000000  -0.000004   0.000547  -0.005265  -0.052880
    13  C   -0.000000   0.000000  -0.000000  -0.000004   0.000246  -0.009347
    14  C    0.000000   0.000000   0.000000  -0.000000  -0.000004   0.000547
    15  C    0.000000  -0.000000  -0.000000   0.000000  -0.000000  -0.000004
    16  C   -0.000000   0.000000   0.000000   0.000000   0.000000  -0.000000
    17  C    0.000000  -0.000000   0.000000  -0.000000  -0.000000   0.000000
    18  C    0.000000   0.000000  -0.000000   0.000000  -0.000000   0.000000
    19  H   -0.000000   0.000000  -0.000000   0.000000  -0.000000   0.000000
    20  H   -0.000000  -0.000000   0.000000   0.000000   0.000000   0.000000
    21  H    0.000001  -0.000000  -0.000000   0.000000   0.000000   0.000000
    22  H    0.000014   0.000001  -0.000000  -0.000000   0.000000   0.000000
    23  H    0.004055   0.000005   0.000001  -0.000000  -0.000000   0.000000
    24  H    0.006065   0.004072   0.000014   0.000001  -0.000000  -0.000000
    25  H    0.634780   0.004276   0.004039   0.000005   0.000001  -0.000000
    26  H    0.004276   0.634975   0.006073   0.004082   0.000014   0.000001
    27  H    0.004039   0.006073   0.634865   0.004275   0.004032   0.000005
    28  H    0.000005   0.004082   0.004275   0.635206   0.006076   0.004087
    29  H    0.000001   0.000014   0.004032   0.006076   0.634844   0.004274
    30  H   -0.000000   0.000001   0.000005   0.004087   0.004274   0.635258
    31  H   -0.000000  -0.000000   0.000001   0.000014   0.004029   0.006077
    32  H    0.000000  -0.000000  -0.000000   0.000001   0.000005   0.004086
    33  H    0.000000   0.000000  -0.000000  -0.000000   0.000001   0.000014
    34  H    0.000000   0.000000   0.000000  -0.000000  -0.000000   0.000001
    35  H    0.000000   0.000000   0.000000   0.000000  -0.000000  -0.000000
    36  H    0.000000   0.000000   0.000000   0.000000   0.000000  -0.000000
    37  H    0.000000   0.000000   0.000000   0.000000   0.000000   0.000000
    38  H    0.000000   0.000000   0.000000  -0.000000   0.000000  -0.000000
              31         32         33         34         35         36
     1  C    0.000000   0.000000   0.000000   0.000000   0.000000   0.000000
     2  C   -0.000000   0.000000   0.000000   0.000000   0.000000   0.000000
     3  C    0.000000  -0.000000   0.000000   0.000000   0.000000   0.000000
     4  C   -0.000000   0.000000  -0.000000   0.000000   0.000000   0.000000
     5  C    0.000000   0.000000   0.000000  -0.000000   0.000000   0.000000
     6  C    0.000000  -0.000000  -0.000000   0.000000  -0.000000   0.000000
     7  C   -0.000000   0.000000   0.000000   0.000000   0.000000  -0.000000
     8  C   -0.000004  -0.000000   0.000000  -0.000000  -0.000000   0.000000
     9  C    0.000536  -0.000004  -0.000000   0.000000   0.000000   0.000000
    10  C   -0.009259   0.000254  -0.000004  -0.000000   0.000000  -0.000000
    11  C   -0.052662  -0.005305   0.000539  -0.000004  -0.000000   0.000000
    12  C    0.380829  -0.047989  -0.009268   0.000254  -0.000003  -0.000000
    13  C   -0.047831   0.380927  -0.052632  -0.005268   0.000548  -0.000005
    14  C   -0.005261  -0.053024   0.381059  -0.048071  -0.009558   0.000269
    15  C    0.000245  -0.009270  -0.047977   0.381334  -0.051004  -0.005764
    16  C   -0.000004   0.000537  -0.005219  -0.053642   0.379491  -0.047490
    17  C   -0.000000  -0.000004   0.000236  -0.009096  -0.046684   0.381936
    18  C    0.000000   0.000000  -0.000003   0.000489  -0.005155  -0.051010
    19  H    0.000000   0.000000   0.000000   0.000000   0.000000   0.000000
    20  H    0.000000   0.000000   0.000000   0.000000   0.000000   0.000000
    21  H    0.000000   0.000000   0.000000   0.000000   0.000000   0.000000
    22  H    0.000000   0.000000   0.000000   0.000000   0.000000   0.000000
    23  H    0.000000   0.000000   0.000000   0.000000   0.000000   0.000000
    24  H    0.000000   0.000000   0.000000   0.000000   0.000000   0.000000
    25  H   -0.000000   0.000000   0.000000   0.000000   0.000000   0.000000
    26  H   -0.000000  -0.000000   0.000000   0.000000   0.000000   0.000000
    27  H    0.000001  -0.000000  -0.000000   0.000000   0.000000   0.000000
    28  H    0.000014   0.000001  -0.000000  -0.000000   0.000000   0.000000
    29  H    0.004029   0.000005   0.000001  -0.000000  -0.000000   0.000000
    30  H    0.006077   0.004086   0.000014   0.000001  -0.000000  -0.000000
    31  H    0.634709   0.004272   0.004030   0.000005   0.000001  -0.000000
    32  H    0.004272   0.635133   0.006072   0.004088   0.000014   0.000001
    33  H    0.004030   0.006072   0.634224   0.004268   0.004039   0.000005
    34  H    0.000005   0.004088   0.004268   0.634429   0.006066   0.004202
    35  H    0.000001   0.000014   0.004039   0.006066   0.631690   0.004337
    36  H   -0.000000   0.000001   0.000005   0.004202   0.004337   0.631943
    37  H   -0.000000  -0.000000   0.000001   0.000014   0.004577   0.005984
    38  H    0.000000  -0.000000   0.000000  -0.000008   0.000025  -0.008113
              37         38
     1  C    0.000000   0.000000
     2  C    0.000000   0.000000
     3  C    0.000000   0.000000
     4  C    0.000000   0.000000
     5  C    0.000000   0.000000
     6  C    0.000000   0.000000
     7  C    0.000000   0.000000
     8  C   -0.000000   0.000000
     9  C    0.000000   0.000000
    10  C   -0.000000   0.000000
    11  C    0.000000  -0.000000
    12  C    0.000000   0.000000
    13  C   -0.000000  -0.000000
    14  C   -0.000000   0.000003
    15  C    0.000563  -0.000224
    16  C   -0.012740   0.004039
    17  C   -0.035898  -0.020423
    18  C    0.382751   0.369477
    19  H    0.000000   0.000000
    20  H    0.000000   0.000000
    21  H    0.000000   0.000000
    22  H    0.000000   0.000000
    23  H    0.000000   0.000000
    24  H    0.000000   0.000000
    25  H    0.000000   0.000000
    26  H    0.000000   0.000000
    27  H    0.000000   0.000000
    28  H    0.000000  -0.000000
    29  H    0.000000   0.000000
    30  H    0.000000  -0.000000
    31  H   -0.000000   0.000000
    32  H   -0.000000  -0.000000
    33  H    0.000001   0.000000
    34  H    0.000014  -0.000008
    35  H    0.004577   0.000025
    36  H    0.005984  -0.008113
    37  H    0.601633  -0.042403
    38  H   -0.042403   0.602260
 Mulliken charges:
               1
     1  C   -0.251844
     2  C   -0.033571
     3  C   -0.077804
     4  C   -0.076624
     5  C   -0.080778
     6  C   -0.078816
     7  C   -0.079918
     8  C   -0.079455
     9  C   -0.079821
    10  C   -0.079601
    11  C   -0.079700
    12  C   -0.079764
    13  C   -0.079038
    14  C   -0.080715
    15  C   -0.076787
    16  C   -0.077824
    17  C   -0.033603
    18  C   -0.251950
    19  H    0.095472
    20  H    0.095595
    21  H    0.083799
    22  H    0.081675
    23  H    0.081067
    24  H    0.080622
    25  H    0.080349
    26  H    0.080219
    27  H    0.080214
    28  H    0.080089
    29  H    0.080193
    30  H    0.080077
    31  H    0.080272
    32  H    0.080205
    33  H    0.080616
    34  H    0.080941
    35  H    0.081618
    36  H    0.083705
    37  H    0.095517
    38  H    0.095368
 Sum of Mulliken charges =  -0.00000
 Mulliken charges with hydrogens summed into heavy atoms:
               1
     1  C   -0.060777
     2  C    0.050228
     3  C    0.003870
     4  C    0.004442
     5  C   -0.000156
     6  C    0.001533
     7  C    0.000301
     8  C    0.000759
     9  C    0.000268
    10  C    0.000593
    11  C    0.000377
    12  C    0.000508
    13  C    0.001167
    14  C   -0.000099
    15  C    0.004154
    16  C    0.003795
    17  C    0.050102
    18  C   -0.061066
 Electronic spatial extent (au):  <R**2>=          19520.2421
 Charge=             -0.0000 electrons
 Dipole moment (field-independent basis, Debye):
    X=              0.0348    Y=              0.0048    Z=              0.0007  Tot=              0.0351
 Quadrupole moment (field-independent basis, Debye-Ang):
   XX=           -104.6504   YY=            -94.8737   ZZ=           -118.0202
   XY=              1.3174   XZ=             -0.0039   YZ=              0.0020
 Traceless Quadrupole moment (field-independent basis, Debye-Ang):
   XX=              1.1977   YY=             10.9744   ZZ=            -12.1721
   XY=              1.3174   XZ=             -0.0039   YZ=              0.0020
 Octapole moment (field-independent basis, Debye-Ang**2):
  XXX=              3.0658  YYY=              0.0657  ZZZ=             -0.0034  XYY=             -0.0886
  XXY=              0.6374  XXZ=              0.1745  XZZ=              0.0278  YZZ=              0.0124
  YYZ=             -0.0007  XYZ=             -0.0641
 Hexadecapole moment (field-independent basis, Debye-Ang**3):
 XXXX=         -25765.7170 YYYY=           -304.7762 ZZZZ=           -122.3689 XXXY=            180.6920
 XXXZ=             -0.7439 YYYX=             -0.2032 YYYZ=              0.0044 ZZZX=              0.0048
 ZZZY=              0.0019 XXYY=          -4060.1433 XXZZ=          -4991.5095 YYZZ=            -80.0979
 XXYZ=              0.1964 YYXZ=              0.0007 ZZXY=              0.7948
 N-N= 9.397696857982D+02 E-N=-3.493638883512D+03  KE= 6.909427562607D+02
 Calling FoFJK, ICntrl=      2127 FMM=F ISym2X=0 I1Cent= 0 IOpClX= 0 NMat=1 NMatS=1 NMatT=0.
 ***** Axes restored to original set *****
 -------------------------------------------------------------------
 Center     Atomic                   Forces (Hartrees/Bohr)
 Number     Number              X              Y              Z
 -------------------------------------------------------------------
      1        6          -0.008405943    0.003991174   -0.000193256
      2        6           0.010899506   -0.022381669    0.001294204
      3        6          -0.021405616    0.023604151   -0.001307402
      4        6           0.024849569   -0.025628242    0.001410356
      5        6          -0.026936049    0.024819614   -0.001348950
      6        6           0.027669646   -0.025470689    0.001383959
      7        6          -0.028344926    0.025218918   -0.001363071
      8        6           0.028493184   -0.025449076    0.001374793
      9        6          -0.028662802    0.025430703   -0.001368741
     10        6           0.028564790   -0.025485256    0.001369914
     11        6          -0.028421064    0.025605861   -0.001372388
     12        6           0.028097167   -0.025472355    0.001362917
     13        6          -0.027435879    0.025800005   -0.001381679
     14        6           0.026585054   -0.025208104    0.001348660
     15        6          -0.024486967    0.026033787   -0.001411688
     16        6           0.021019583   -0.023982973    0.001311587
     17        6          -0.010523273    0.022586281   -0.001308487
     18        6           0.008372825   -0.004155348    0.000188979
     19        1          -0.002712826   -0.003545473    0.000230741
     20        1          -0.002394598    0.000472028   -0.000014906
     21        1           0.005355063    0.000262032   -0.000046971
     22        1          -0.003401230    0.000556543   -0.000013973
     23        1           0.003182876   -0.000385289    0.000005094
     24        1          -0.003182126    0.000475368   -0.000009656
     25        1           0.003192061   -0.000412846    0.000006898
     26        1          -0.003191103    0.000464428   -0.000007668
     27        1           0.003195190   -0.000441839    0.000008714
     28        1          -0.003195651    0.000464602   -0.000005902
     29        1           0.003202532   -0.000464473    0.000009702
     30        1          -0.003203266    0.000467343   -0.000004223
     31        1           0.003211216   -0.000486011    0.000009979
     32        1          -0.003211238    0.000462826   -0.000002568
     33        1           0.003208477   -0.000510225    0.000009944
     34        1          -0.003204066    0.000456086   -0.000001621
     35        1           0.003421583   -0.000596668    0.000011862
     36        1          -0.005378371   -0.000134297    0.000052456
     37        1           0.002400753   -0.000482316    0.000011823
     38        1           0.002775918    0.003521396   -0.000239434
 -------------------------------------------------------------------
 Cartesian Forces:  Max     0.028662802 RMS     0.013422321

 GradGradGradGradGradGradGradGradGradGradGradGradGradGradGradGradGradGrad
 Berny optimization.
 FormGI is forming the generalized inverse of G from B-inverse, IUseBI=4.
 Internal  Forces:  Max     0.021860501 RMS     0.007931799
 Search for a local minimum.
 Step number   1 out of a maximum of  169
 All quantities printed in internal units (Hartrees-Bohrs-Radians)
 Mixed Optimization -- RFO/linear search
 Second derivative matrix not updated -- first step.
 ITU=  0
     Eigenvalues ---    0.01059   0.01059   0.01060   0.01060   0.01061
     Eigenvalues ---    0.01061   0.01065   0.01067   0.01978   0.01978
     Eigenvalues ---    0.01978   0.01978   0.01979   0.01979   0.01979
     Eigenvalues ---    0.01979   0.01979   0.01979   0.01979   0.01979
     Eigenvalues ---    0.01982   0.01983   0.01998   0.01999   0.02887
     Eigenvalues ---    0.02888   0.02888   0.02888   0.02889   0.02889
     Eigenvalues ---    0.02890   0.02948   0.02948   0.02949   0.02949
     Eigenvalues ---    0.16000   0.16000   0.16000   0.16000   0.16000
     Eigenvalues ---    0.16000   0.16000   0.16000   0.16000   0.16000
     Eigenvalues ---    0.16000   0.16000   0.16000   0.16000   0.16000
     Eigenvalues ---    0.16000   0.16000   0.16000   0.16000   0.16000
     Eigenvalues ---    0.22000   0.22000   0.22000   0.22000   0.22000
     Eigenvalues ---    0.22000   0.22000   0.22000   0.22000   0.22000
     Eigenvalues ---    0.22000   0.22000   0.22000   0.22000   0.22000
     Eigenvalues ---    0.22000   0.34814   0.34818   0.34824   0.34829
     Eigenvalues ---    0.34831   0.34831   0.34872   0.34886   0.35075
     Eigenvalues ---    0.35076   0.35076   0.35076   0.35077   0.35077
     Eigenvalues ---    0.35077   0.35080   0.35081   0.35082   0.35082
     Eigenvalues ---    0.35082   0.35082   0.35082   0.35188   0.35193
     Eigenvalues ---    0.35269   0.35275   0.35369   0.35373   0.57290
     Eigenvalues ---    0.57295   0.57300   0.57302   0.57309   0.57314
     Eigenvalues ---    0.57325   0.58337   0.58352
 RFO step:  Lambda=-2.96262459D-02 EMin= 1.05859472D-02
 Linear search not attempted -- first point.
 Maximum step size (   0.300) exceeded in Quadratic search.
    -- Step size scaled by   0.947
 Iteration  1 RMS(Cart)=  0.07514388 RMS(Int)=  0.00046287
 Iteration  2 RMS(Cart)=  0.00160417 RMS(Int)=  0.00000037
 Iteration  3 RMS(Cart)=  0.00000026 RMS(Int)=  0.00000036
 Variable       Old X    -DE/DX   Delta X   Delta X   Delta X     New X
                                 (Linear)    (Quad)   (Total)
    R1        2.52281   0.01186   0.00000   0.01832   0.01832   2.54114
    R2        2.05074   0.00018   0.00000   0.00044   0.00044   2.05118
    R3        2.05241  -0.00021   0.00000  -0.00052  -0.00052   2.05188
    R4        2.79160  -0.01413   0.00000  -0.03534  -0.03534   2.75626
    R5        2.05362   0.00064   0.00000   0.00158   0.00158   2.05520
    R6        2.53143   0.01872   0.00000   0.02941   0.02941   2.56084
    R7        2.05553  -0.00028   0.00000  -0.00069  -0.00069   2.05484
    R8        2.79250  -0.01785   0.00000  -0.04472  -0.04472   2.74779
    R9        2.05544  -0.00013   0.00000  -0.00031  -0.00031   2.05513
   R10        2.53152   0.02094   0.00000   0.03289   0.03289   2.56441
   R11        2.05550  -0.00021   0.00000  -0.00053  -0.00053   2.05497
   R12        2.79249  -0.01883   0.00000  -0.04717  -0.04717   2.74532
   R13        2.05542  -0.00015   0.00000  -0.00036  -0.00036   2.05505
   R14        2.53147   0.02166   0.00000   0.03404   0.03404   2.56551
   R15        2.05551  -0.00019   0.00000  -0.00048  -0.00048   2.05503
   R16        2.79254  -0.01912   0.00000  -0.04791  -0.04791   2.74463
   R17        2.05542  -0.00017   0.00000  -0.00041  -0.00041   2.05501
   R18        2.53142   0.02186   0.00000   0.03434   0.03434   2.56576
   R19        2.05551  -0.00018   0.00000  -0.00045  -0.00045   2.05506
   R20        2.79262  -0.01914   0.00000  -0.04795  -0.04795   2.74467
   R21        2.05542  -0.00018   0.00000  -0.00044  -0.00044   2.05499
   R22        2.53135   0.02173   0.00000   0.03413   0.03413   2.56548
   R23        2.05551  -0.00017   0.00000  -0.00043  -0.00043   2.05508
   R24        2.79271  -0.01887   0.00000  -0.04729  -0.04729   2.74542
   R25        2.05542  -0.00018   0.00000  -0.00046  -0.00046   2.05497
   R26        2.53132   0.02104   0.00000   0.03305   0.03305   2.56436
   R27        2.05550  -0.00015   0.00000  -0.00038  -0.00038   2.05511
   R28        2.79278  -0.01791   0.00000  -0.04487  -0.04487   2.74791
   R29        2.05542  -0.00020   0.00000  -0.00049  -0.00049   2.05493
   R30        2.53122   0.01883   0.00000   0.02957   0.02957   2.56080
   R31        2.05552  -0.00014   0.00000  -0.00035  -0.00035   2.05517
   R32        2.79183  -0.01418   0.00000  -0.03548  -0.03548   2.75635
   R33        2.05544  -0.00025   0.00000  -0.00063  -0.00063   2.05481
   R34        2.52269   0.01194   0.00000   0.01843   0.01843   2.54112
   R35        2.05371   0.00061   0.00000   0.00152   0.00152   2.05522
   R36        2.05230  -0.00017   0.00000  -0.00043  -0.00043   2.05187
   R37        2.05080   0.00016   0.00000   0.00039   0.00039   2.05119
    A1        2.09394   0.00444   0.00000   0.02218   0.02218   2.11612
    A2        2.11473   0.00027   0.00000   0.00137   0.00137   2.11610
    A3        2.07452  -0.00472   0.00000  -0.02355  -0.02355   2.05097
    A4        2.11381   0.01185   0.00000   0.04495   0.04495   2.15876
    A5        2.07635  -0.00046   0.00000   0.00482   0.00482   2.08117
    A6        2.09303  -0.01139   0.00000  -0.04977  -0.04977   2.04326
    A7        2.11089   0.01210   0.00000   0.04591   0.04591   2.15679
    A8        2.08114  -0.00958   0.00000  -0.04058  -0.04058   2.04056
    A9        2.09115  -0.00252   0.00000  -0.00533  -0.00533   2.08583
   A10        2.11026   0.01278   0.00000   0.04846   0.04846   2.15871
   A11        2.09076  -0.00310   0.00000  -0.00779  -0.00779   2.08297
   A12        2.08217  -0.00968   0.00000  -0.04067  -0.04067   2.04150
   A13        2.11181   0.01229   0.00000   0.04659   0.04659   2.15841
   A14        2.08112  -0.00944   0.00000  -0.03977  -0.03977   2.04135
   A15        2.09026  -0.00284   0.00000  -0.00682  -0.00682   2.08343
   A16        2.10967   0.01279   0.00000   0.04850   0.04850   2.15818
   A17        2.09116  -0.00309   0.00000  -0.00775  -0.00775   2.08341
   A18        2.08235  -0.00970   0.00000  -0.04075  -0.04075   2.04160
   A19        2.11236   0.01232   0.00000   0.04673   0.04673   2.15909
   A20        2.08082  -0.00947   0.00000  -0.03988  -0.03988   2.04094
   A21        2.09001  -0.00285   0.00000  -0.00685  -0.00685   2.08316
   A22        2.10919   0.01284   0.00000   0.04869   0.04869   2.15788
   A23        2.09135  -0.00311   0.00000  -0.00782  -0.00782   2.08353
   A24        2.08265  -0.00973   0.00000  -0.04088  -0.04088   2.04177
   A25        2.11273   0.01231   0.00000   0.04670   0.04670   2.15943
   A26        2.08064  -0.00947   0.00000  -0.03990  -0.03990   2.04074
   A27        2.08982  -0.00284   0.00000  -0.00681  -0.00681   2.08301
[...]
 00000002,0.00000229,-0.00000174,0.00000009,-0.00000421,0.00000137,-0.0
 0000006,0.00000564,-0.00000292,0.00000014,-0.00000922,0.00000227,-0.00
 000009,0.00001210,-0.00000513,0.00000023,-0.00001826,0.00000432,-0.000
 00015,0.00002447,-0.00000950,0.00000039,-0.00003452,0.00000773,-0.0000
 0034,0.00006852,-0.00002232,0.00000105,-0.00007284,-0.00007946,0.00000
 523,-0.00005246,-0.00010361,0.00000521,0.00158765,0.00143350,-0.000110
 54,0.00486415,0.02645384,-0.00162800,-0.06211072,-0.02851520,0.0018857
 3,-0.00045485,-0.03082587,0.00191696,0.00129334,-0.00206437,0.00007774
 ,-0.00003369,0.00028486,-0.00001658,-0.00000012,-0.00000009,0.,-0.0000
 0002,-0.00000004,0.,0.00000002,0.00000014,0.,-0.00000010,-0.00000007,0
 .,0.00000004,0.00000018,0.,-0.00000023,-0.00000013,0.00000002,0.000000
 10,0.00000021,0.,-0.00000056,-0.00000036,0.00000004,0.00000046,-0.0000
 0003,0.,-0.00000352,-0.00000103,0.00000011,0.00000882,-0.00000264,0.00
 000014,-0.00005390,-0.00001945,0.00000159,0.00004429,-0.00024279,0.000
 01538,-0.00029435,-0.00088542,0.00005759,-0.00384136,0.00242655,-0.000
 09610,0.06388967,0.00002420,-0.00001851,0.00000092,-0.00000872,0.00003
 855,-0.00000231,0.00000678,-0.00003676,0.00000217,0.00000009,0.0000429
 9,-0.00000267,0.00000094,-0.00004045,0.00000239,0.00000639,0.00004982,
 -0.00000311,-0.00000568,-0.00004926,0.00000302,0.00001956,0.00005973,-
 0.00000404,-0.00002079,-0.00006965,0.00000351,0.00004765,0.00007873,-0
 .00000388,-0.00001981,-0.00009128,0.00000482,0.00041369,0.00052673,-0.
 00004848,-0.00180943,0.00086178,-0.00015817,-0.00352844,-0.01635323,0.
 00120025,-0.02969130,-0.31955588,0.01726118,-0.00073028,-0.01160088,0.
 00100873,0.00218017,0.00085284,-0.00043746,-0.00017797,0.00043732,-0.0
 0001997,0.00000474,0.00000024,-0.00000003,-0.00000079,0.00000073,-0.00
 000001,-0.00000044,-0.00000570,0.00000037,0.00000016,-0.00000024,0.000
 00005,0.00000018,-0.00000696,0.00000046,0.00000016,-0.00000054,0.00000
 009,0.00000032,-0.00000831,0.00000057,0.00000063,-0.00000049,0.0000001
 3,0.00000023,-0.00000981,0.00000066,0.00000263,0.00000078,0.00000016,-
 0.00000229,-0.00001148,0.00000106,0.00003688,0.00000577,-0.00000018,-0
 .00024380,0.00009550,0.00000360,0.00100603,0.00064927,-0.00003140,0.00
 244198,-0.00061815,0.00027224,0.03247530,0.34380414,-0.00000147,0.0000
 0108,-0.00000092,0.00000052,-0.00000236,-0.00000007,-0.00000039,0.0000
 0220,-0.00000066,-0.00000005,-0.00000265,-0.00000052,0.,0.00000238,-0.
 00000130,-0.00000047,-0.00000303,-0.00000018,0.00000046,0.00000295,-0.
 00000061,-0.00000138,-0.00000385,-0.00000408,0.00000140,0.00000332,-0.
 00001464,-0.00000323,-0.00000342,0.00002052,0.00000159,0.00000521,-0.0
 0001485,-0.00002638,-0.00004509,-0.00021997,0.00008748,-0.00017943,-0.
 00191250,0.00020273,0.00100373,0.00286201,0.00195754,0.01725346,-0.041
 11938,0.00007931,0.00120600,0.00476676,-0.00018143,-0.00040964,-0.0060
 5131,0.00001169,-0.00002301,0.00009244,-0.00000029,0.,0.00000029,0.000
 00005,-0.00000002,0.00000040,0.00000003,0.00000037,0.00000034,0.,0.000
 00005,0.00000052,0.,0.00000046,0.00000056,0.,0.00000009,0.00000096,-0.
 00000001,0.00000057,0.00000100,-0.00000002,0.00000013,0.00000164,0.,0.
 00000067,0.00000105,-0.00000011,0.00000019,0.00000374,0.00000012,0.000
 00107,0.00000563,-0.00000185,0.00000019,0.00000679,0.00001544,0.000003
 59,0.00012793,-0.00005791,-0.00001900,0.00024463,-0.00009704,0.0002723
 5,0.00408665,-0.00223086,-0.01961395,0.02728065,0.00000073,-0.00000007
 ,0.,-0.00000103,0.00000038,-0.00000002,0.00000160,-0.00000019,0.,-0.00
 000244,0.00000036,0.,0.00000354,-0.00000002,-0.00000003,-0.00000504,0.
 00000028,-0.00000002,0.00000703,0.00000020,-0.00000006,-0.00000923,-0.
 00000010,0.00000020,0.00001289,0.00000093,-0.00000019,-0.00001530,-0.0
 0000269,-0.00000033,0.00003847,0.00000791,-0.00000050,-0.00000502,0.00
 006833,-0.00000273,-0.00008732,0.00021278,-0.00001308,0.00140914,-0.00
 189383,0.00006772,-0.00044652,-0.03077127,0.00191403,-0.06218209,-0.03
 019190,0.00199539,0.00491134,0.02627767,-0.00161718,0.00164225,0.00100
 800,-0.00008238,0.00000003,0.,0.,0.,0.00000009,0.,-0.00000003,0.000000
 07,0.,0.00000007,0.00000012,0.,-0.00000010,0.00000016,0.,0.00000017,0.
 00000020,-0.00000001,-0.00000024,0.00000037,-0.00000001,0.00000039,0.0
 0000042,-0.00000001,-0.00000055,0.00000093,-0.00000004,0.00000139,0.00
 000125,-0.00000014,-0.00000358,0.00000310,-0.00000014,0.00001265,0.000
 00418,-0.00000022,-0.00005345,0.00003678,-0.00000186,0.00012974,0.0002
 3513,-0.00001291,-0.00028852,0.00099330,-0.00005702,-0.00466514,-0.001
 69531,0.00019418,0.06357608,0.00000139,-0.00000245,0.00000010,0.000001
 22,0.00000328,-0.00000023,-0.00000356,-0.00000426,0.00000026,0.0000060
 3,0.00000267,-0.00000017,-0.00000978,-0.00000447,0.00000028,0.00001389
 ,0.00000139,-0.00000049,-0.00002143,-0.00000507,0.00000044,0.00002953,
 -0.00000163,0.00000113,-0.00004766,-0.00000612,0.00000024,0.00006255,-
 0.00001450,-0.00000505,-0.00011254,-0.00000385,0.00000317,0.00009294,-
 0.00004480,0.00001521,-0.00035128,0.00048029,-0.00003321,0.00215492,0.
 00080615,-0.00042370,-0.00059030,-0.01107706,0.00098013,-0.03159343,-0
 .32070218,0.01740717,-0.00402155,-0.01617700,0.00119617,-0.00122212,0.
 00113941,-0.00015541,0.00000044,0.00000001,0.00000001,-0.00000006,0.00
 000030,0.,-0.00000004,-0.00000030,0.00000004,0.00000012,0.00000031,0.,
 -0.00000007,-0.00000024,0.00000005,0.00000020,0.00000045,0.,-0.0000001
 4,-0.00000002,0.00000006,0.00000045,0.00000082,0.00000007,-0.00000039,
 0.00000064,0.00000006,0.00000135,0.00000178,-0.00000061,-0.00000113,0.
 00000278,0.00000006,0.00000451,0.00000325,0.00000091,-0.00001941,0.000
 00880,-0.00000006,0.00023612,0.00000140,0.00001977,-0.00088943,0.00063
 717,-0.00001682,-0.00166091,0.00031781,0.00055121,0.03442709,0.3443202
 1,-0.00000009,0.00000011,-0.00000073,-0.00000007,-0.00000023,-0.000000
 42,0.00000020,0.00000024,-0.00000040,-0.00000035,-0.00000014,0.0000004
 8,0.00000057,0.00000022,-0.00000094,-0.00000085,-0.00000040,-0.0000050
 4,0.00000126,0.00000029,-0.00000025,-0.00000161,0.00000133,0.00001999,
 0.00000278,-0.00000008,-0.00000733,-0.00000431,-0.00000462,-0.00009017
 ,0.00000686,0.00000238,0.00003585,-0.00000424,0.00001537,0.00021337,0.
 00002136,-0.00003691,-0.00009919,-0.00017950,-0.00039716,-0.00587612,0
 .00007116,0.00117794,0.00483889,0.00208097,0.01739799,-0.04009058,0.00
 023291,0.00099758,0.00291871,0.00005379,-0.00017002,-0.00152685,-0.000
 00003,0.00000002,0.00000030,0.,0.,0.00000031,0.,0.00000004,0.00000033,
 0.,0.,0.00000047,0.,0.00000005,0.00000052,-0.00000001,0.,0.00000043,0.
 00000002,0.00000006,0.00000097,-0.00000002,0.00000007,0.00000205,0.000
 00004,0.00000005,0.00000163,-0.00000014,-0.00000061,-0.00000799,0.0000
 0012,0.00000004,0.00000369,-0.00000024,0.00000091,0.00001857,0.0000015
 7,-0.00000043,0.00000579,-0.00001297,0.00001978,0.00034944,0.00005795,
 -0.00002916,0.00026765,0.00019208,0.00055143,0.00913176,-0.00235484,-0
 .01972228,0.02624165,0.00000116,-0.00000128,0.00000007,0.00000014,0.00
 000229,-0.00000014,-0.00000106,-0.00000224,0.00000014,0.00000203,0.000
 00209,-0.00000014,-0.00000331,-0.00000205,0.00000014,0.00000469,0.0000
 0165,-0.00000014,-0.00000703,-0.00000168,0.00000014,0.00000953,0.00000
 058,-0.00000010,-0.00001350,-0.00000070,0.00000013,0.00001903,-0.00000
 200,-0.00000003,-0.00002539,0.00000065,0.00000005,0.00005867,-0.000010
 62,0.00000036,-0.00005536,-0.00008915,0.00000567,-0.00007589,-0.000083
 81,0.00000429,0.00164584,0.00142769,-0.00010871,0.00466949,0.02635888,
 -0.00162032,-0.06194328,-0.03167243,0.00206651,-0.00137678,-0.03194460
 ,0.00199375,0.00000032,-0.00000003,0.,-0.00000008,0.00000005,0.,-0.000
 00003,-0.00000038,0.00000002,-0.00000003,-0.00000004,0.,0.00000002,-0.
 00000044,0.00000003,-0.00000008,-0.00000009,0.,0.00000006,-0.00000051,
 0.00000003,-0.00000018,-0.00000018,0.00000002,0.00000011,-0.00000062,0
 .00000004,-0.00000043,-0.00000041,0.00000004,0.00000051,-0.00000104,0.
 00000007,-0.00000333,-0.00000098,0.00000011,0.00000824,-0.00000358,0.0
 0000020,-0.00005093,-0.00001868,0.00000154,0.00004102,-0.00024296,0.00
 001527,-0.00028774,-0.00089384,0.00005790,-0.00387822,0.00243386,-0.00
 009923,0.06490361,0.00001988,-0.00001485,0.00000074,-0.00000759,0.0000
 3135,-0.00000187,0.00000618,-0.00002937,0.00000173,-0.00000124,0.00003
 471,-0.00000213,0.00000252,-0.00003160,0.00000188,0.00000192,0.0000397
 6,-0.00000248,-0.00000006,-0.00003694,0.00000219,0.00000687,0.00004701
 ,-0.00000294,-0.00000500,-0.00004649,0.00000282,0.00001848,0.00005829,
 -0.00000395,-0.00001748,-0.00006849,0.00000362,0.00004297,0.00008079,-
 0.00000428,-0.00001010,-0.00009388,0.00000451,0.00042735,0.00055521,-0
 .00004905,-0.00181192,0.00084909,-0.00014013,-0.00375068,-0.01693931,0
 .00124315,-0.03304717,-0.32110222,0.01727616,-0.00004761,-0.00953118,0
 .00090065,0.00000388,0.00000014,-0.00000002,-0.00000068,0.00000056,-0.
 00000001,-0.00000038,-0.00000468,0.00000030,0.00000007,-0.00000030,0.0
 0000004,0.00000014,-0.00000570,0.00000037,0.,-0.00000064,0.00000007,0.
 00000027,-0.00000680,0.00000045,0.00000014,-0.00000088,0.00000011,0.00
 000042,-0.00000819,0.00000056,0.00000061,-0.00000084,0.00000015,0.0000
 0035,-0.00000983,0.00000068,0.00000274,0.00000042,0.00000021,-0.000002
 19,-0.00001176,0.00000106,0.00003905,0.00000579,0.00000004,-0.00025413
 ,0.00010287,0.00000189,0.00104731,0.00068027,-0.00003498,0.00262021,-0
 .00062773,0.00024445,0.03640821,0.34397683,-0.00000123,0.00000088,-0.0
 0000062,0.00000046,-0.00000194,-0.00000004,-0.00000037,0.00000179,-0.0
 0000046,0.00000006,-0.00000215,-0.00000018,-0.00000014,0.00000191,-0.0
 0000064,-0.00000015,-0.00000248,-0.00000050,0.00000004,0.00000220,-0.0
 0000118,-0.00000048,-0.00000290,-0.00000026,0.00000039,0.00000279,-0.0
 0000097,-0.00000128,-0.00000382,-0.00000416,0.00000116,0.00000350,-0.0
 0001135,-0.00000291,-0.00000392,0.00001565,0.00000084,0.00000503,-0.00
 002134,-0.00002692,-0.00004570,-0.00019924,0.00008910,-0.00016136,-0.0
 0163107,0.00021818,0.00104581,0.00295209,0.00215046,0.01726714,-0.0427
 8229,0.00004610,0.00110970,0.00514569,-0.00000024,0.,0.00000021,0.0000
 0004,-0.00000002,0.00000027,0.00000002,0.00000030,0.00000022,0.,0.0000
 0004,0.00000033,0.,0.00000037,0.00000034,0.,0.00000007,0.00000050,-0.0
 0000001,0.00000045,0.00000054,0.,0.00000011,0.00000091,-0.00000002,0.0
 0000057,0.00000097,-0.00000002,0.00000015,0.00000160,-0.00000002,0.000
 00069,0.00000128,-0.00000012,0.00000024,0.00000422,0.00000011,0.000001
 07,0.00000532,-0.00000198,0.00000042,0.00001057,0.00001595,0.00000182,
 0.00010633,-0.00006062,-0.00002226,0.00022152,-0.00011061,0.00024568,0
 .00364274,-0.00246955,-0.01957498,0.02851240,0.00000306,-0.00000208,0.
 00000010,-0.00000145,0.00000458,-0.00000027,0.00000131,-0.00000404,0.0
 0000024,-0.00000097,0.00000483,-0.00000029,0.00000131,-0.00000399,0.00
 000023,-0.00000135,0.00000517,-0.00000030,0.00000193,-0.00000414,0.000
 00023,-0.00000218,0.00000546,-0.00000036,0.00000302,-0.00000430,0.0000
 0024,-0.00000314,0.00000556,-0.00000016,0.00000504,-0.00000405,0.00000
 015,-0.00000371,0.00000325,-0.00000086,0.00002425,-0.00000056,0.000000
 12,0.00003802,0.00007544,-0.00000274,-0.00013715,0.00020628,-0.0000121
 5,0.00178973,-0.00183563,0.00005204,-0.00022059,-0.03089235,0.00191859
 ,-0.06587467,-0.04089617,0.00271128,0.00000059,-0.00000001,0.,-0.00000
 011,0.00000008,0.,-0.00000008,-0.00000068,0.00000004,0.,-0.00000006,0.
 ,-0.00000002,-0.00000079,0.00000005,0.,-0.00000011,0.00000001,-0.00000
 005,-0.00000086,0.00000006,0.00000006,-0.00000014,0.00000001,-0.000000
 12,-0.00000087,0.00000006,0.00000019,-0.00000005,0.00000002,-0.0000004
 1,-0.00000059,0.00000005,0.00000132,0.00000054,-0.00000010,-0.00000320
 ,0.00000097,-0.00000001,0.00001041,0.00000327,-0.00000016,-0.00005025,
 0.00003371,-0.00000171,0.00013298,0.00023434,-0.00001296,-0.00023336,0
 .00095285,-0.00005475,-0.00467027,-0.00159845,0.00020016,0.06258734,-0
 .00000217,0.00000064,-0.00000006,0.00000201,-0.00000269,0.00000014,-0.
 00000311,0.00000155,-0.00000010,0.00000403,-0.00000329,0.00000014,-0.0
 0000627,0.00000141,-0.00000007,0.00000833,-0.00000429,0.00000024,-0.00
 001248,0.00000120,-0.00000006,0.00001657,-0.00000609,-0.00000011,-0.00
 002496,0.00000064,0.00000010,0.00003345,-0.00000964,0.00000182,-0.0000
 5400,-0.00000058,-0.00000017,0.00007028,-0.00002305,-0.00000546,-0.000
 12752,-0.00000176,0.00000324,0.00011456,-0.00005852,0.00002252,-0.0003
 4108,0.00043034,-0.00002829,0.00220946,0.00097273,-0.00052400,-0.00075
 575,-0.00970529,0.00088487,-0.04434451,-0.33011627,0.01842032,-0.00000
 034,0.00000003,0.00000001,0.00000008,0.00000012,0.,0.00000005,0.000000
 56,-0.00000002,0.00000009,0.00000030,0.,-0.00000004,0.00000073,-0.0000
 0002,0.00000015,0.00000046,0.,-0.00000008,0.00000097,-0.00000002,0.000
 00027,0.00000074,-0.00000001,-0.00000016,0.00000139,-0.00000001,0.0000
 0057,0.00000127,0.00000008,-0.00000036,0.00000227,-0.00000002,0.000001
 57,0.00000245,-0.00000072,-0.00000095,0.00000469,-0.00000002,0.0000049
 7,0.00000400,0.00000070,-0.00001454,0.00000792,-0.00000019,0.00022014,
 -0.00001689,0.00002026,-0.00096878,0.00054578,-0.00000926,-0.00189672,
 0.00088131,0.00062892,0.05105944,0.34924931,0.00000011,-0.00000006,-0.
 00000060,-0.00000011,0.00000013,-0.00000012,0.00000018,-0.00000009,-0.
 00000036,-0.00000024,0.00000013,-0.00000062,0.00000037,-0.00000009,-0.
 00000044,-0.00000050,0.00000026,0.00000049,0.00000074,-0.00000011,-0.0
 0000107,-0.00000104,-0.00000004,-0.00000611,0.00000150,-0.00000004,-0.
 00000044,-0.00000187,0.00000200,0.00002365,0.00000320,-0.00000049,-0.0
 0000911,-0.00000495,-0.00000502,-0.00010460,0.00000787,0.00000241,0.00
 003742,-0.00000513,0.00002278,0.00032123,0.00002127,-0.00003188,-0.000
 06776,-0.00019495,-0.00049749,-0.00734007,0.00007843,0.00108239,0.0046
 3872,0.00292184,0.01839773,-0.03434614,0.00000002,0.00000001,0.0000002
 1,0.,0.,0.00000028,0.,-0.00000001,0.00000027,0.,0.,0.00000031,0.,-0.00
 000001,0.00000040,0.,0.,0.00000055,0.,-0.00000002,0.00000063,-0.000000
 01,-0.00000001,0.00000053,0.00000002,0.,0.00000117,-0.00000002,0.00000
 008,0.00000262,0.00000004,-0.00000002,0.00000196,-0.00000016,-0.000000
 71,-0.00000905,0.00000011,-0.00000003,0.00000423,-0.00000027,0.0000007
 2,0.00001603,0.00000124,-0.00000051,0.00000328,-0.00001209,0.00002016,
 0.00033733,0.00006259,-0.00002185,0.00029107,0.00021837,0.00062696,0.0
 1093788,-0.00338539,-0.02033215,0.02301079,-0.00001624,0.00001158,-0.0
 0000060,0.00000685,-0.00002522,0.00000149,-0.00000616,0.00002288,-0.00
 000136,0.00000302,-0.00002777,0.00000168,-0.00000488,0.00002401,-0.000
 00144,0.00000288,-0.00003157,0.00000189,-0.00000609,0.00002699,-0.0000
 0161,0.00000362,-0.00003695,0.00000232,-0.00000968,0.00003215,-0.00000
 193,0.00000374,-0.00004669,0.00000238,-0.00002105,0.00004632,-0.000002
 63,-0.00001256,-0.00008062,0.00000703,-0.00009215,0.00014459,-0.000008
 71,-0.00025787,-0.00036668,0.00001455,-0.00062803,0.00134305,-0.000076
 40,-0.00264497,-0.00422432,0.00035150,-0.01874875,0.02044217,-0.001097
 95,-0.23811759,0.13676462,-0.00699468,-0.00000316,-0.00000005,0.000000
 03,0.00000059,-0.00000034,0.00000002,0.00000032,0.00000388,-0.00000024
 ,0.00000003,0.00000044,-0.00000003,-0.00000012,0.00000474,-0.00000029,
 0.00000016,0.00000084,-0.00000005,-0.00000024,0.00000567,-0.00000034,0
 .00000022,0.00000128,-0.00000007,-0.00000038,0.00000692,-0.00000042,0.
 00000039,0.00000179,-0.00000013,-0.00000053,0.00000870,-0.00000052,0.0
 0000077,0.00000198,0.00000003,0.00000079,0.00001165,-0.00000071,0.0000
 0125,-0.00000199,-0.00000038,0.00001605,0.00001724,-0.00000099,0.00000
 520,-0.00007415,0.00000545,0.00012967,0.00012578,-0.00001039,0.0010284
 6,-0.00009491,-0.00004642,0.00660251,-0.00519218,0.00028885,0.25276391
 ,0.00000023,0.00000054,-0.00000006,-0.00000108,-0.00000056,0.00000002,
 0.00000168,0.00000113,-0.00000009,-0.00000301,-0.00000094,0.00000010,0
 .00000413,0.00000190,-0.00000018,-0.00000647,-0.00000155,-0.00000008,0
 .00000862,0.00000330,-0.00000025,-0.00001300,-0.00000250,0.00000104,0.
 00001714,0.00000635,-0.00000077,-0.00002662,-0.00000527,-0.00000365,0.
 00003415,0.00001560,-0.00000062,-0.00006503,-0.00001795,0.00002043,0.0
 0006041,0.00006509,-0.00000890,-0.00027791,-0.00012721,-0.00007919,-0.
 00017287,0.00079692,-0.00003360,-0.00209930,-0.00089155,0.00077836,-0.
 01248240,0.01064447,-0.00031303,0.14127768,-0.16504623,0.00724769,-0.0
 0000005,-0.00000006,0.00000002,-0.00000001,0.00000003,0.00000001,-0.00
 000003,0.00000014,0.,0.,0.00000001,0.00000002,-0.00000009,0.00000024,0
 .,0.00000003,0.,0.00000001,-0.00000017,0.00000042,0.,0.00000007,0.0000
 0003,0.00000009,-0.00000034,0.00000075,0.,0.00000020,0.00000006,-0.000
 00015,-0.00000088,0.00000153,0.00000002,0.00000066,0.00000032,0.000001
 38,-0.00000165,0.00000341,-0.00000016,0.00000012,-0.00000161,-0.000004
 48,-0.00000654,0.00001057,0.00000093,0.00008500,-0.00000852,0.00000891
 ,-0.00037608,0.00039700,-0.00003906,0.00023509,0.00122726,-0.00050012,
 0.02265412,-0.01216446,0.00073487,-0.14884580,0.16509134,0.00000009,-0
 .00000014,-0.00000048,0.00000002,0.00000018,-0.00000031,-0.00000006,-0
 .00000023,-0.00000022,0.00000017,0.00000027,0.00000042,-0.00000022,-0.
 00000031,-0.00000053,0.00000035,0.00000008,-0.00000359,-0.00000049,-0.
 00000037,0.00000021,0.00000086,0.00000119,0.00001300,-0.00000101,-0.00
 000087,-0.00000436,0.00000116,-0.00000351,-0.00006763,-0.00000189,-0.0
 0000070,0.00000911,0.00000608,0.00002053,0.00030829,-0.00000357,-0.000
 00945,-0.00007351,0.00000913,-0.00007861,-0.00144927,0.00001616,-0.000
 04353,0.00023071,0.00022175,0.00079228,0.01158056,0.00091245,-0.000528
 81,0.00420444,-0.00727025,0.00727726,-0.03158192,0.00000003,0.00000002
 ,0.00000021,0.,0.00000001,0.00000021,0.,-0.00000002,0.00000021,0.,0.00
 000001,0.00000030,0.,-0.00000003,0.00000029,0.,0.,0.00000018,0.0000000
 2,-0.00000003,0.00000047,0.,0.00000008,0.00000142,0.00000003,-0.000000
 05,0.00000062,-0.00000003,-0.00000016,-0.00000231,0.00000007,-0.000000
 04,0.00000182,0.00000011,0.00000137,0.00002291,0.00000010,-0.00000025,
 0.00000062,-0.00000051,-0.00000446,-0.00007464,0.00000046,0.00000077,0
 .00002505,-0.00000426,0.00000995,0.00014587,0.00002026,-0.00004235,-0.
 00028065,-0.00006657,-0.00049796,-0.00690728,-0.00141146,0.00091737,0.
 00225545,0.00757104,-0.00780950,0.02164434\\0.00001326,0.00000397,-0.0
 0000033,0.00000030,-0.00000106,0.00000006,-0.00000369,0.00000524,-0.00
 000030,0.00000057,-0.00000367,0.00000022,-0.00000146,0.00000530,-0.000
 00031,-0.00000268,-0.00000243,0.00000017,0.00000322,0.00000356,-0.0000
 0022,-0.00000645,-0.00000248,0.00000021,0.00000709,0.00000300,-0.00000
 020,-0.00000720,-0.00000296,0.00000026,0.00000662,0.00000245,-0.000000
 15,-0.00000351,-0.00000347,0.00000028,0.00000315,0.00000237,-0.0000001
 3,0.00000120,-0.00000525,0.00000035,-0.00000003,0.00000367,-0.00000020
 ,0.00000346,-0.00000523,0.00000031,0.,0.00000118,-0.00000005,-0.000013
 48,-0.00000404,0.00000035,-0.00000198,-0.00000265,0.00000017,-0.000003
 11,-0.00000125,0.00000010,-0.00000215,0.00000043,0.,0.00000189,-0.0000
 0277,0.00000016,-0.00000234,0.00000233,-0.00000013,0.00000148,-0.00000
 272,0.00000015,-0.00000230,0.00000166,-0.00000009,0.00000147,-0.000002
 12,0.00000011,-0.00000154,0.00000173,-0.00000012,0.00000122,-0.0000019
 2,0.00000008,-0.00000126,0.00000195,-0.00000015,0.00000148,-0.00000174
 ,0.00000005,-0.00000150,0.00000215,-0.00000016,0.00000222,-0.00000170,
 0.00000005,-0.00000150,0.00000271,-0.00000019,0.00000227,-0.00000235,0
 .00000010,-0.00000190,0.00000270,-0.00000017,0.00000210,-0.00000044,0.
 ,0.00000315,0.00000119,-0.00000010,0.00000197,0.00000265,-0.00000018\\
 \@


 NATURE GIVES TO EVERY TIME AND SEASON SOME BEAUTY OF ITS OWN.

                                                    --DICKENS
 Job cpu time:       0 days  1 hours  8 minutes  6.9 seconds.
 Elapsed time:       0 days  0 hours 17 minutes  1.9 seconds.
 File lengths (MBytes):  RWF=    544 Int=      0 D2E=      0 Chk=     61 Scr=      1
 Normal termination of Gaussian 16 at Thu Nov  9 23:56:52 2023.
