 Entering Gaussian System, Link 0=g16
 Input=benzeno.com
 Output=benzeno.log
 Initial command:
 /home/shohei/gaussian/g16/l1.exe "/home/shohei/gaussian/scratch/Gau-2411.inp" -scrdir="/home/shohei/gaussian/scratch/"
 Entering Link 1 = /home/shohei/gaussian/g16/l1.exe PID=      2413.
  
 Copyright (c) 1988-2017, Gaussian, Inc.  All Rights Reserved.
  
 This is part of the Gaussian(R) 16 program.  It is based on
 the Gaussian(R) 09 system (copyright 2009, Gaussian, Inc.),
 the Gaussian(R) 03 system (copyright 2003, Gaussian, Inc.),
 the Gaussian(R) 98 system (copyright 1998, Gaussian, Inc.),
 the Gaussian(R) 94 system (copyright 1995, Gaussian, Inc.),
 the Gaussian 92(TM) system (copyright 1992, Gaussian, Inc.),
 the Gaussian 90(TM) system (copyright 1990, Gaussian, Inc.),
 the Gaussian 88(TM) system (copyright 1988, Gaussian, Inc.),
 the Gaussian 86(TM) system (copyright 1986, Carnegie Mellon
 University), and the Gaussian 82(TM) system (copyright 1983,
 Carnegie Mellon University). Gaussian is a federally registered
 trademark of Gaussian, Inc.
  
 This software contains proprietary and confidential information,
 including trade secrets, belonging to Gaussian, Inc.
  
 This software is provided under written license and may be
 used, copied, transmitted, or stored only in accord with that
 written license.
  
 The following legend is applicable only to US Government
 contracts under FAR:
  
                    RESTRICTED RIGHTS LEGEND
  
 Use, reproduction and disclosure by the US Government is
 subject to restrictions as set forth in subparagraphs (a)
 and (c) of the Commercial Computer Software - Restricted
 Rights clause in FAR 52.227-19.
  
 Gaussian, Inc.
 340 Quinnipiac St., Bldg. 40, Wallingford CT 06492
  
  
 ---------------------------------------------------------------
 Warning -- This program may not be used in any manner that
 competes with the business of Gaussian, Inc. or will provide
 assistance to any competitor of Gaussian, Inc.  The licensee
 of this program is prohibited from giving any competitor of
 Gaussian, Inc. access to this program.  By using this program,
 the user acknowledges that Gaussian, Inc. is engaged in the
 business of creating and licensing software in the field of
 computational chemistry and represents and warrants to the
 licensee that it is not a competitor of Gaussian, Inc. and that
 it will not use this program in any manner prohibited above.
 ---------------------------------------------------------------
  

 Cite this work as:
 Gaussian 16, Revision B.01,
 M. J. Frisch, G. W. Trucks, H. B. Schlegel, G. E. Scuseria, 
 M. A. Robb, J. R. Cheeseman, G. Scalmani, V. Barone, 
 G. A. Petersson, H. Nakatsuji, X. Li, M. Caricato, A. V. Marenich, 
 J. Bloino, B. G. Janesko, R. Gomperts, B. Mennucci, H. P. Hratchian, 
 J. V. Ortiz, A. F. Izmaylov, J. L. Sonnenberg, D. Williams-Young, 
 F. Ding, F. Lipparini, F. Egidi, J. Goings, B. Peng, A. Petrone, 
 T. Henderson, D. Ranasinghe, V. G. Zakrzewski, J. Gao, N. Rega, 
 G. Zheng, W. Liang, M. Hada, M. Ehara, K. Toyota, R. Fukuda, 
 J. Hasegawa, M. Ishida, T. Nakajima, Y. Honda, O. Kitao, H. Nakai, 
 T. Vreven, K. Throssell, J. A. Montgomery, Jr., J. E. Peralta, 
 F. Ogliaro, M. J. Bearpark, J. J. Heyd, E. N. Brothers, K. N. Kudin, 
 V. N. Staroverov, T. A. Keith, R. Kobayashi, J. Normand, 
 K. Raghavachari, A. P. Rendell, J. C. Burant, S. S. Iyengar, 
 J. Tomasi, M. Cossi, J. M. Millam, M. Klene, C. Adamo, R. Cammi, 
 J. W. Ochterski, R. L. Martin, K. Morokuma, O. Farkas, 
 J. B. Foresman, and D. J. Fox, Gaussian, Inc., Wallingford CT, 2016.
 
 ******************************************
 Gaussian 16:  EM64L-G16RevB.01 20-Dec-2017
                22-Sep-2023 
 ******************************************
 %chk=checkpoint.chk
 ---------------------------
 # B3LYP/6-31G(d,p) OPT FREQ
 ---------------------------
 1/18=20,19=15,26=3,38=1/1,3;
 2/9=110,12=2,17=6,18=5,40=1/2;
 3/5=1,6=6,7=101,11=2,25=1,30=1,71=1,74=-5/1,2,3;
 4//1;
 5/5=2,38=5/2;
 6/7=2,8=2,9=2,10=2,28=1/1;
 7//1,2,3,16;
 1/18=20,19=15,26=3/3(2);
 2/9=110/2;
 99//99;
 2/9=110/2;
 3/5=1,6=6,7=101,11=2,25=1,30=1,71=1,74=-5/1,2,3;
 4/5=5,16=3,69=1/1;
 5/5=2,38=5/2;
 7//1,2,3,16;
 1/18=20,19=15,26=3/3(-5);
 2/9=110/2;
 6/7=2,8=2,9=2,10=2,19=2,28=1/1;
 99/9=1/99;
 -------
 Benzeno
 -------
 Symbolic Z-matrix:
 Charge =  0 Multiplicity = 1
 C                    -1.67839   1.88871  -0.10449 
 C                    -0.28329   1.78416  -0.09422 
 C                     0.3234    0.5249   -0.03485 
 C                    -0.46499  -0.62979   0.0142 
 C                    -1.86009  -0.52525   0.00395 
 C                    -2.46678   0.73401  -0.05537 
 H                    -2.14775   2.8629   -0.15043 
 H                    -3.54607   0.81487  -0.06326 
 H                    -2.47001  -1.41856   0.04193 
 H                     0.00437  -1.60398   0.06008 
 H                     1.40268   0.44402  -0.02688 
 H                     0.32666   2.67746  -0.13219 
 

 GradGradGradGradGradGradGradGradGradGradGradGradGradGradGradGradGradGrad
 Berny optimization.
 Initialization pass.
                           ----------------------------
                           !    Initial Parameters    !
                           ! (Angstroms and Degrees)  !
 --------------------------                            --------------------------
 ! Name  Definition              Value          Derivative Info.                !
 --------------------------------------------------------------------------------
 ! R1    R(1,2)                  1.399          estimate D2E/DX2                !
 ! R2    R(1,6)                  1.399          estimate D2E/DX2                !
 ! R3    R(1,7)                  1.0823         estimate D2E/DX2                !
 ! R4    R(2,3)                  1.399          estimate D2E/DX2                !
 ! R5    R(2,12)                 1.0823         estimate D2E/DX2                !
 ! R6    R(3,4)                  1.399          estimate D2E/DX2                !
 ! R7    R(3,11)                 1.0823         estimate D2E/DX2                !
 ! R8    R(4,5)                  1.399          estimate D2E/DX2                !
 ! R9    R(4,10)                 1.0823         estimate D2E/DX2                !
 ! R10   R(5,6)                  1.399          estimate D2E/DX2                !
 ! R11   R(5,9)                  1.0823         estimate D2E/DX2                !
 ! R12   R(6,8)                  1.0823         estimate D2E/DX2                !
 ! A1    A(2,1,6)              119.9999         estimate D2E/DX2                !
 ! A2    A(2,1,7)              120.0001         estimate D2E/DX2                !
 ! A3    A(6,1,7)              120.0            estimate D2E/DX2                !
 ! A4    A(1,2,3)              119.9996         estimate D2E/DX2                !
 ! A5    A(1,2,12)             120.0015         estimate D2E/DX2                !
 ! A6    A(3,2,12)             119.9989         estimate D2E/DX2                !
 ! A7    A(2,3,4)              120.0003         estimate D2E/DX2                !
 ! A8    A(2,3,11)             120.0            estimate D2E/DX2                !
 ! A9    A(4,3,11)             119.9997         estimate D2E/DX2                !
 ! A10   A(3,4,5)              120.0004         estimate D2E/DX2                !
 ! A11   A(3,4,10)             119.9997         estimate D2E/DX2                !
 ! A12   A(5,4,10)             120.0            estimate D2E/DX2                !
 ! A13   A(4,5,6)              119.9997         estimate D2E/DX2                !
 ! A14   A(4,5,9)              120.0001         estimate D2E/DX2                !
 ! A15   A(6,5,9)              120.0002         estimate D2E/DX2                !
 ! A16   A(1,6,5)              120.0001         estimate D2E/DX2                !
 ! A17   A(1,6,8)              120.0011         estimate D2E/DX2                !
 ! A18   A(5,6,8)              119.9987         estimate D2E/DX2                !
 ! D1    D(6,1,2,3)              0.0015         estimate D2E/DX2                !
 ! D2    D(6,1,2,12)          -179.9981         estimate D2E/DX2                !
 ! D3    D(7,1,2,3)           -179.9993         estimate D2E/DX2                !
 ! D4    D(7,1,2,12)             0.0011         estimate D2E/DX2                !
 ! D5    D(2,1,6,5)             -0.0036         estimate D2E/DX2                !
 ! D6    D(2,1,6,8)            179.9967         estimate D2E/DX2                !
 ! D7    D(7,1,6,5)            179.9972         estimate D2E/DX2                !
 ! D8    D(7,1,6,8)             -0.0025         estimate D2E/DX2                !
 ! D9    D(1,2,3,4)              0.0021         estimate D2E/DX2                !
 ! D10   D(1,2,3,11)          -179.9983         estimate D2E/DX2                !
 ! D11   D(12,2,3,4)          -179.9983         estimate D2E/DX2                !
 ! D12   D(12,2,3,11)            0.0013         estimate D2E/DX2                !
 ! D13   D(2,3,4,5)             -0.0035         estimate D2E/DX2                !
 ! D14   D(2,3,4,10)           179.9974         estimate D2E/DX2                !
 ! D15   D(11,3,4,5)           179.9969         estimate D2E/DX2                !
 ! D16   D(11,3,4,10)           -0.0023         estimate D2E/DX2                !
 ! D17   D(3,4,5,6)              0.0013         estimate D2E/DX2                !
 ! D18   D(3,4,5,9)           -179.9983         estimate D2E/DX2                !
 ! D19   D(10,4,5,6)          -179.9995         estimate D2E/DX2                !
 ! D20   D(10,4,5,9)             0.0008         estimate D2E/DX2                !
 ! D21   D(4,5,6,1)              0.0022         estimate D2E/DX2                !
 ! D22   D(4,5,6,8)           -179.9982         estimate D2E/DX2                !
 ! D23   D(9,5,6,1)           -179.9982         estimate D2E/DX2                !
 ! D24   D(9,5,6,8)              0.0015         estimate D2E/DX2                !
 --------------------------------------------------------------------------------
 Trust Radius=3.00D-01 FncErr=1.00D-07 GrdErr=1.00D-06 EigMax=2.50D+02 EigMin=1.00D-04
 Number of steps in this run=     64 maximum allowed number of steps=    100.
 GradGradGradGradGradGradGradGradGradGradGradGradGradGradGradGradGradGrad

                          Input orientation:                          
 ---------------------------------------------------------------------
 Center     Atomic      Atomic             Coordinates (Angstroms)
 Number     Number       Type             X           Y           Z
 ---------------------------------------------------------------------
      1          6           0       -1.678386    1.888710   -0.104491
      2          6           0       -0.283286    1.784161   -0.094220
      3          6           0        0.323402    0.524904   -0.034855
      4          6           0       -0.464993   -0.629792    0.014196
      5          6           0       -1.860086   -0.525248    0.003954
      6          6           0       -2.466782    0.734006   -0.055366
      7          1           0       -2.147746    2.862904   -0.150429
      8          1           0       -3.546068    0.814867   -0.063258
      9          1           0       -2.470008   -1.418560    0.041929
     10          1           0        0.004368   -1.603984    0.060079
     11          1           0        1.402684    0.444016   -0.026880
     12          1           0        0.326662    2.677456   -0.132193
 ---------------------------------------------------------------------
                    Distance matrix (angstroms):
                    1          2          3          4          5
     1  C    0.000000
     2  C    1.399049   0.000000
     3  C    2.423214   1.399043   0.000000
     4  C    2.798082   2.423209   1.399034   0.000000
     5  C    2.423215   2.798090   2.423210   1.399043   0.000000
     6  C    1.399043   2.423219   2.798083   2.423209   1.399042
     7  H    1.082342   2.154775   3.403847   3.880424   3.403845
     8  H    2.154780   3.403856   3.880423   3.403831   2.154753
     9  H    3.403841   3.880426   3.403833   2.154764   1.082336
    10  H    3.880419   3.403833   2.154753   1.082337   2.154764
    11  H    3.403844   2.154767   1.082339   2.154754   3.403835
    12  H    2.154787   1.082337   2.154753   3.403827   3.880427
                    6          7          8          9         10
     6  C    0.000000
     7  H    2.154769   0.000000
     8  H    1.082340   2.481403   0.000000
     9  H    2.154765   4.297881   2.481363   0.000000
    10  H    3.403836   4.962761   4.297865   2.481380   0.000000
    11  H    3.880421   4.297888   4.962762   4.297867   2.481361
    12  H    3.403855   2.481415   4.297910   4.962763   4.297856
                   11         12
    11  H    0.000000
    12  H    2.481364   0.000000
 Stoichiometry    C6H6
 Framework group  C1[X(C6H6)]
 Deg. of freedom    30
 Full point group                 C1      NOp   1
 Largest Abelian subgroup         C1      NOp   1
 Largest concise Abelian subgroup C1      NOp   1
                         Standard orientation:                         
 ---------------------------------------------------------------------
 Center     Atomic      Atomic             Coordinates (Angstroms)
 Number     Number       Type             X           Y           Z
 ---------------------------------------------------------------------
      1          6           0       -0.180770    1.387317   -0.000018
      2          6           0        1.111071    0.850208   -0.000003
      3          6           0        1.291830   -0.537109    0.000019
      4          6           0        0.180770   -1.387309   -0.000018
      5          6           0       -1.111067   -0.850208   -0.000003
      6          6           0       -1.291835    0.537107    0.000020
      7          1           0       -0.320621    2.460586   -0.000046
      8          1           0       -2.291245    0.952607    0.000061
      9          1           0       -1.970614   -1.507954   -0.000004
     10          1           0        0.320622   -2.460573   -0.000044
     11          1           0        2.291227   -0.952637    0.000059
     12          1           0        1.970638    1.507930   -0.000002
 ---------------------------------------------------------------------
 Rotational constants (GHZ):           5.6733403           5.6733164           2.8366642
 Standard basis: 6-31G(d,p) (6D, 7F)
 There are   120 symmetry adapted cartesian basis functions of A   symmetry.
 There are   120 symmetry adapted basis functions of A   symmetry.
   120 basis functions,   210 primitive gaussians,   120 cartesian basis functions
    21 alpha electrons       21 beta electrons
       nuclear repulsion energy       203.0194152132 Hartrees.
 NAtoms=   12 NActive=   12 NUniq=   12 SFac= 1.00D+00 NAtFMM=   60 NAOKFM=F Big=F
 Integral buffers will be    131072 words long.
 Raffenetti 2 integral format.
 Two-electron integral symmetry is turned on.
 One-electron integrals computed using PRISM.
 NBasis=   120 RedAO= T EigKep=  5.27D-04  NBF=   120
 NBsUse=   120 1.00D-06 EigRej= -1.00D+00 NBFU=   120
 ExpMin= 1.61D-01 ExpMax= 3.05D+03 ExpMxC= 4.57D+02 IAcc=3 IRadAn=         5 AccDes= 0.00D+00
 Harris functional with IExCor=  402 and IRadAn=       5 diagonalized for initial guess.
 HarFok:  IExCor=  402 AccDes= 0.00D+00 IRadAn=         5 IDoV= 1 UseB2=F ITyADJ=14
 ICtDFT=  3500011 ScaDFX=  1.000000  1.000000  1.000000  1.000000
 FoFCou: FMM=F IPFlag=           0 FMFlag=      100000 FMFlg1=           0
         NFxFlg=           0 DoJE=T BraDBF=F KetDBF=T FulRan=T
         wScrn=  0.000000 ICntrl=       500 IOpCl=  0 I1Cent=   200000004 NGrid=           0
         NMat0=    1 NMatS0=      1 NMatT0=    0 NMatD0=    1 NMtDS0=    0 NMtDT0=    0
 Petite list used in FoFCou.
 Keep R1 ints in memory in canonical form, NReq=27305921.
 Requested convergence on RMS density matrix=1.00D-08 within 128 cycles.
 Requested convergence on MAX density matrix=1.00D-06.
 Requested convergence on             energy=1.00D-06.
 No special actions if energy rises.
 Integral accuracy reduced to 1.0D-05 until final iterations.
 Initial convergence to 1.0D-05 achieved.  Increase integral accuracy.
 SCF Done:  E(RB3LYP) =  -232.258102812     A.U. after   10 cycles
            NFock= 10  Conv=0.30D-08     -V/T= 2.0101

 **********************************************************************

            Population analysis using the SCF Density.

 **********************************************************************

 Orbital symmetries:
       Occupied  (A) (A) (A) (A) (A) (A) (A) (A) (A) (A) (A) (A)
                 (A) (A) (A) (A) (A) (A) (A) (A) (A)
       Virtual   (A) (A) (A) (A) (A) (A) (A) (A) (A) (A) (A) (A)
                 (A) (A) (A) (A) (A) (A) (A) (A) (A) (A) (A) (A)
                 (A) (A) (A) (A) (A) (A) (A) (A) (A) (A) (A) (A)
                 (A) (A) (A) (A) (A) (A) (A) (A) (A) (A) (A) (A)
                 (A) (A) (A) (A) (A) (A) (A) (A) (A) (A) (A) (A)
                 (A) (A) (A) (A) (A) (A) (A) (A) (A) (A) (A) (A)
                 (A) (A) (A) (A) (A) (A) (A) (A) (A) (A) (A) (A)
                 (A) (A) (A) (A) (A) (A) (A) (A) (A) (A) (A) (A)
                 (A) (A) (A)
 The electronic state is 1-A.
 Alpha  occ. eigenvalues --  -10.18812 -10.18786 -10.18786 -10.18732 -10.18732
 Alpha  occ. eigenvalues --  -10.18706  -0.84534  -0.73958  -0.73958  -0.59759
 Alpha  occ. eigenvalues --   -0.59759  -0.51795  -0.45992  -0.43762  -0.41679
 Alpha  occ. eigenvalues --   -0.41679  -0.35890  -0.34001  -0.34001  -0.24643
 Alpha  occ. eigenvalues --   -0.24643
 Alpha virt. eigenvalues --    0.00213   0.00213   0.09265   0.14627   0.14627
 Alpha virt. eigenvalues --    0.16048   0.18197   0.18197   0.19131   0.30002
 Alpha virt. eigenvalues --    0.30002   0.31660   0.31660   0.46817   0.52744
 Alpha virt. eigenvalues --    0.54568   0.54944   0.55848   0.59153   0.60013
 Alpha virt. eigenvalues --    0.60013   0.60203   0.60203   0.62453   0.62453
 Alpha virt. eigenvalues --    0.66707   0.66707   0.74223   0.82230   0.82230
 Alpha virt. eigenvalues --    0.82662   0.84702   0.84702   0.92697   0.93586
 Alpha virt. eigenvalues --    0.93587   0.95658   1.07756   1.07756   1.12793
 Alpha virt. eigenvalues --    1.12793   1.20012   1.26193   1.30112   1.40597
 Alpha virt. eigenvalues --    1.40597   1.42740   1.42740   1.43218   1.43218
 Alpha virt. eigenvalues --    1.75243   1.75474   1.81679   1.88131   1.92750
 Alpha virt. eigenvalues --    1.92751   1.96492   1.96492   1.97632   1.97632
 Alpha virt. eigenvalues --    2.02092   2.07004   2.07005   2.29390   2.29391
 Alpha virt. eigenvalues --    2.35793   2.35794   2.37067   2.41321   2.41850
 Alpha virt. eigenvalues --    2.41850   2.44167   2.44168   2.49560   2.49560
 Alpha virt. eigenvalues --    2.53020   2.59006   2.60359   2.60359   2.65237
 Alpha virt. eigenvalues --    2.77415   2.81066   2.81067   3.05103   3.05104
 Alpha virt. eigenvalues --    3.19085   3.24382   3.25641   3.25641   3.39722
 Alpha virt. eigenvalues --    3.51453   3.51454   3.95237   4.12736   4.16132
 Alpha virt. eigenvalues --    4.16132   4.43835   4.43835   4.82887
          Condensed to atoms (all electrons):
               1          2          3          4          5          6
     1  C    4.804622   0.548225  -0.035483  -0.040085  -0.035484   0.548225
     2  C    0.548225   4.804625   0.548226  -0.035484  -0.040085  -0.035482
     3  C   -0.035483   0.548226   4.804613   0.548232  -0.035484  -0.040085
     4  C   -0.040085  -0.035484   0.548232   4.804609   0.548229  -0.035483
     5  C   -0.035484  -0.040085  -0.035484   0.548229   4.804620   0.548226
     6  C    0.548225  -0.035482  -0.040085  -0.035483   0.548226   4.804620
     7  H    0.369089  -0.042404   0.004818   0.000592   0.004818  -0.042404
     8  H   -0.042404   0.004817   0.000592   0.004818  -0.042405   0.369090
     9  H    0.004818   0.000592   0.004818  -0.042404   0.369091  -0.042404
    10  H    0.000592   0.004818  -0.042405   0.369089  -0.042405   0.004818
    11  H    0.004818  -0.042405   0.369090  -0.042405   0.004818   0.000592
    12  H   -0.042403   0.369091  -0.042404   0.004818   0.000592   0.004817
               7          8          9         10         11         12
     1  C    0.369089  -0.042404   0.004818   0.000592   0.004818  -0.042403
     2  C   -0.042404   0.004817   0.000592   0.004818  -0.042405   0.369091
     3  C    0.004818   0.000592   0.004818  -0.042405   0.369090  -0.042404
     4  C    0.000592   0.004818  -0.042404   0.369089  -0.042405   0.004818
     5  C    0.004818  -0.042405   0.369091  -0.042405   0.004818   0.000592
     6  C   -0.042404   0.369090  -0.042404   0.004818   0.000592   0.004817
     7  H    0.634132  -0.006402  -0.000189   0.000015  -0.000189  -0.006402
     8  H   -0.006402   0.634133  -0.006403  -0.000189   0.000015  -0.000189
     9  H   -0.000189  -0.006403   0.634130  -0.006403  -0.000189   0.000015
    10  H    0.000015  -0.000189  -0.006403   0.634136  -0.006403  -0.000189
    11  H   -0.000189   0.000015  -0.000189  -0.006403   0.634135  -0.006403
    12  H   -0.006402  -0.000189   0.000015  -0.000189  -0.006403   0.634128
 Mulliken charges:
               1
     1  C   -0.084529
     2  C   -0.084532
     3  C   -0.084526
     4  C   -0.084525
     5  C   -0.084530
     6  C   -0.084528
     7  H    0.084529
     8  H    0.084528
     9  H    0.084529
    10  H    0.084527
    11  H    0.084527
    12  H    0.084530
 Sum of Mulliken charges =  -0.00000
 Mulliken charges with hydrogens summed into heavy atoms:
               1
     1  C   -0.000000
     2  C   -0.000003
     3  C    0.000002
     4  C    0.000002
     5  C   -0.000001
     6  C   -0.000000
 Electronic spatial extent (au):  <R**2>=            458.9647
 Charge=              0.0000 electrons
 Dipole moment (field-independent basis, Debye):
    X=              0.0000    Y=             -0.0000    Z=              0.0000  Tot=              0.0000
 Quadrupole moment (field-independent basis, Debye-Ang):
   XX=            -31.4403   YY=            -31.4405   ZZ=            -38.5444
   XY=              0.0001   XZ=              0.0000   YZ=             -0.0000
 Traceless Quadrupole moment (field-independent basis, Debye-Ang):
   XX=              2.3681   YY=              2.3679   ZZ=             -4.7360
   XY=              0.0001   XZ=              0.0000   YZ=             -0.0000
 Octapole moment (field-independent basis, Debye-Ang**2):
  XXX=              0.0000  YYY=             -0.0001  ZZZ=              0.0000  XYY=              0.0000
  XXY=             -0.0001  XXZ=              0.0004  XZZ=              0.0000  YZZ=             -0.0001
  YYZ=             -0.0003  XYZ=             -0.0001
 Hexadecapole moment (field-independent basis, Debye-Ang**3):
 XXXX=           -270.9832 YYYY=           -270.9835 ZZZZ=            -39.9390 XXXY=              0.0005
 XXXZ=              0.0000 YYYX=             -0.0000 YYYZ=             -0.0000 ZZZX=              0.0000
 ZZZY=             -0.0000 XXYY=            -90.3279 XXZZ=            -60.4902 YYZZ=            -60.4900
 XXYZ=              0.0000 YYXZ=              0.0000 ZZXY=              0.0000
 N-N= 2.030194152132D+02 E-N=-9.434009532176D+02  KE= 2.299351780819D+02
 Calling FoFJK, ICntrl=      2127 FMM=F ISym2X=0 I1Cent= 0 IOpClX= 0 NMat=1 NMatS=1 NMatT=0.
 ***** Axes restored to original set *****
 -------------------------------------------------------------------
 Center     Atomic                   Forces (Hartrees/Bohr)
 Number     Number              X              Y              Z
 -------------------------------------------------------------------
      1        6           0.002281103   -0.004720640    0.000224386
      2        6          -0.002959084   -0.004337470    0.000184743
      3        6          -0.005229112    0.000397486   -0.000040431
      4        6          -0.002280863    0.004717415   -0.000220543
      5        6           0.002957229    0.004336903   -0.000183953
      6        6           0.005231047   -0.000394258    0.000036655
      7        1          -0.001173853    0.002436909   -0.000113916
      8        1          -0.002699981    0.000204637   -0.000021279
      9        1          -0.001527816   -0.002237463    0.000095192
     10        1           0.001175160   -0.002440187    0.000115783
     11        1           0.002701530   -0.000201665    0.000018594
     12        1           0.001524640    0.002238335   -0.000095232
 -------------------------------------------------------------------
 Cartesian Forces:  Max     0.005231047 RMS     0.002411212

 GradGradGradGradGradGradGradGradGradGradGradGradGradGradGradGradGradGrad
 Berny optimization.
 FormGI is forming the generalized inverse of G from B-inverse, IUseBI=4.
 Internal  Forces:  Max     0.002711001 RMS     0.001237655
 Search for a local minimum.
 Step number   1 out of a maximum of   64
 All quantities printed in internal units (Hartrees-Bohrs-Radians)
 Mixed Optimization -- RFO/linear search
 Second derivative matrix not updated -- first step.
 ITU=  0
     Eigenvalues ---    0.02101   0.02101   0.02101   0.02101   0.02101
     Eigenvalues ---    0.02101   0.02101   0.02101   0.02101   0.16000
     Eigenvalues ---    0.16000   0.16000   0.16000   0.16000   0.16000
     Eigenvalues ---    0.22000   0.22000   0.22000   0.35713   0.35713
     Eigenvalues ---    0.35713   0.35713   0.35713   0.35714   0.41578
     Eigenvalues ---    0.41578   0.45779   0.45779   0.45780   0.45781
 RFO step:  Lambda=-2.07692931D-04 EMin= 2.10135967D-02
 Linear search not attempted -- first point.
 Iteration  1 RMS(Cart)=  0.00196899 RMS(Int)=  0.00000010
 Iteration  2 RMS(Cart)=  0.00000005 RMS(Int)=  0.00000000
 Variable       Old X    -DE/DX   Delta X   Delta X   Delta X     New X
                                 (Linear)    (Quad)   (Total)
    R1        2.64382  -0.00254   0.00000  -0.00556  -0.00556   2.63827
    R2        2.64381  -0.00254   0.00000  -0.00555  -0.00555   2.63826
    R3        2.04533   0.00271   0.00000   0.00758   0.00758   2.05291
    R4        2.64381  -0.00254   0.00000  -0.00555  -0.00555   2.63826
    R5        2.04532   0.00271   0.00000   0.00758   0.00758   2.05290
    R6        2.64379  -0.00253   0.00000  -0.00553  -0.00553   2.63826
    R7        2.04532   0.00271   0.00000   0.00758   0.00758   2.05291
    R8        2.64381  -0.00254   0.00000  -0.00554  -0.00554   2.63827
    R9        2.04532   0.00271   0.00000   0.00759   0.00759   2.05291
   R10        2.64381  -0.00254   0.00000  -0.00555  -0.00555   2.63826
   R11        2.04532   0.00271   0.00000   0.00759   0.00759   2.05290
   R12        2.04533   0.00271   0.00000   0.00758   0.00758   2.05290
    A1        2.09439   0.00000   0.00000   0.00000   0.00000   2.09440
    A2        2.09440  -0.00000   0.00000   0.00000   0.00000   2.09440
    A3        2.09439  -0.00000   0.00000  -0.00000  -0.00000   2.09439
    A4        2.09439   0.00000   0.00000   0.00001   0.00001   2.09440
    A5        2.09442  -0.00000   0.00000  -0.00003  -0.00003   2.09439
    A6        2.09438   0.00000   0.00000   0.00002   0.00002   2.09440
    A7        2.09440  -0.00000   0.00000  -0.00001  -0.00001   2.09439
    A8        2.09440  -0.00000   0.00000  -0.00001  -0.00001   2.09439
    A9        2.09439   0.00000   0.00000   0.00001   0.00001   2.09440
   A10        2.09440  -0.00000   0.00000  -0.00001  -0.00001   2.09440
   A11        2.09439   0.00000   0.00000   0.00000   0.00000   2.09439
   A12        2.09439   0.00000   0.00000   0.00000   0.00000   2.09440
   A13        2.09439   0.00000   0.00000   0.00000   0.00000   2.09440
   A14        2.09440  -0.00000   0.00000  -0.00001  -0.00001   2.09439
   A15        2.09440   0.00000   0.00000   0.00000   0.00000   2.09440
   A16        2.09440  -0.00000   0.00000  -0.00000  -0.00000   2.09439
   A17        2.09441  -0.00000   0.00000  -0.00001  -0.00001   2.09441
   A18        2.09437   0.00000   0.00000   0.00001   0.00001   2.09439
    D1        0.00003  -0.00000   0.00000  -0.00003  -0.00003  -0.00001
    D2       -3.14156  -0.00000   0.00000  -0.00004  -0.00004   3.14158
    D3       -3.14158  -0.00000   0.00000  -0.00000  -0.00000  -3.14158
    D4        0.00002  -0.00000   0.00000  -0.00001  -0.00001   0.00001
    D5       -0.00006   0.00000   0.00000   0.00008   0.00008   0.00001
    D6        3.14154   0.00000   0.00000   0.00005   0.00005   3.14159
    D7        3.14154   0.00000   0.00000   0.00005   0.00005   3.14159
    D8       -0.00004   0.00000   0.00000   0.00002   0.00002  -0.00002
    D9        0.00004  -0.00000   0.00000  -0.00004  -0.00004  -0.00001
   D10       -3.14156  -0.00000   0.00000  -0.00002  -0.00002  -3.14159
   D11       -3.14156  -0.00000   0.00000  -0.00003  -0.00003   3.14159
   D12        0.00002  -0.00000   0.00000  -0.00001  -0.00001   0.00001
   D13       -0.00006   0.00000   0.00000   0.00007   0.00007   0.00001
   D14        3.14155   0.00000   0.00000   0.00004   0.00004   3.14159
   D15        3.14154   0.00000   0.00000   0.00005   0.00005   3.14159
   D16       -0.00004   0.00000   0.00000   0.00002   0.00002  -0.00002
   D17        0.00002  -0.00000   0.00000  -0.00003  -0.00003  -0.00000
   D18       -3.14156  -0.00000   0.00000  -0.00004  -0.00004   3.14158
   D19       -3.14158   0.00000   0.00000   0.00000   0.00000  -3.14158
   D20        0.00001  -0.00000   0.00000  -0.00001  -0.00001   0.00001
   D21        0.00004  -0.00000   0.00000  -0.00005  -0.00005  -0.00001
   D22       -3.14156  -0.00000   0.00000  -0.00002  -0.00002  -3.14159
   D23       -3.14156  -0.00000   0.00000  -0.00004  -0.00004   3.14159
   D24        0.00003  -0.00000   0.00000  -0.00002  -0.00002   0.00001
         Item               Value     Threshold  Converged?
 Maximum Force            0.002711     0.000450     NO 
 RMS     Force            0.001238     0.000300     NO 
 Maximum Displacement     0.005529     0.001800     NO 
 RMS     Displacement     0.001969     0.001200     NO 
 Predicted change in Energy=-1.039015D-04
 GradGradGradGradGradGradGradGradGradGradGradGradGradGradGradGradGradGrad

                          Input orientation:                          
 ---------------------------------------------------------------------
 Center     Atomic      Atomic             Coordinates (Angstroms)
 Number     Number       Type             X           Y           Z
 ---------------------------------------------------------------------
      1          6           0       -1.677108    1.886066   -0.104342
      2          6           0       -0.284940    1.781734   -0.094111
      3          6           0        0.320482    0.525121   -0.034897
      4          6           0       -0.466265   -0.627159    0.014095
      5          6           0       -1.858435   -0.522826    0.003858
      6          6           0       -2.463856    0.733786   -0.055366
      7          1           0       -2.148207    2.863871   -0.150428
      8          1           0       -3.547140    0.814960   -0.063325
      9          1           0       -2.470619   -1.419451    0.041972
     10          1           0        0.004833   -1.604964    0.060169
     11          1           0        1.403766    0.443945   -0.026929
     12          1           0        0.327247    2.678356   -0.132229
 ---------------------------------------------------------------------
                    Distance matrix (angstroms):
                    1          2          3          4          5
     1  C    0.000000
     2  C    1.396110   0.000000
     3  C    2.418132   1.396108   0.000000
     4  C    2.792216   2.418130   1.396109   0.000000
     5  C    2.418129   2.792218   2.418135   1.396111   0.000000
     6  C    1.396109   2.418134   2.792221   2.418132   1.396107
     7  H    1.086351   2.155448   3.402575   3.878567   3.402571
     8  H    2.155451   3.402580   3.878571   3.402571   2.155438
     9  H    3.402574   3.878568   3.402574   2.155443   1.086350
    10  H    3.878567   3.402572   2.155443   1.086352   2.155449
    11  H    3.402572   2.155440   1.086351   2.155450   3.402580
    12  H    2.155444   1.086350   2.155444   3.402573   3.878568
                    6          7          8          9         10
     6  C    0.000000
     7  H    2.155442   0.000000
     8  H    1.086350   2.482465   0.000000
     9  H    2.155446   4.299745   2.482454   0.000000
    10  H    3.402576   4.964918   4.299744   2.482460   0.000000
    11  H    3.878571   4.299745   4.964922   4.299750   2.482464
    12  H    3.402575   2.482462   4.299752   4.964919   4.299744
                   11         12
    11  H    0.000000
    12  H    2.482454   0.000000
 Stoichiometry    C6H6
 Framework group  C1[X(C6H6)]
 Deg. of freedom    30
 Full point group                 C1      NOp   1
 Largest Abelian subgroup         C1      NOp   1
 Largest concise Abelian subgroup C1      NOp   1
                         Standard orientation:                         
 ---------------------------------------------------------------------
 Center     Atomic      Atomic             Coordinates (Angstroms)
 Number     Number       Type             X           Y           Z
 ---------------------------------------------------------------------
      1          6           0       -0.255412    1.372546    0.000004
      2          6           0        1.060956    0.907465    0.000001
      3          6           0        1.316368   -0.465081   -0.000004
      4          6           0        0.255412   -1.372546    0.000004
      5          6           0       -1.060956   -0.907465    0.000001
      6          6           0       -1.316368    0.465081   -0.000004
      7          1           0       -0.454158    2.440562   -0.000002
      8          1           0       -2.340671    0.826964    0.000000
      9          1           0       -1.886511   -1.613593   -0.000001
     10          1           0        0.454158   -2.440563   -0.000002
     11          1           0        2.340671   -0.826966    0.000000
     12          1           0        1.886512    1.613591   -0.000001
 ---------------------------------------------------------------------
 Rotational constants (GHZ):           5.6911636           5.6911399           2.8455759
 Standard basis: 6-31G(d,p) (6D, 7F)
 There are   120 symmetry adapted cartesian basis functions of A   symmetry.
 There are   120 symmetry adapted basis functions of A   symmetry.
   120 basis functions,   210 primitive gaussians,   120 cartesian basis functions
    21 alpha electrons       21 beta electrons
       nuclear repulsion energy       203.2680127664 Hartrees.
 NAtoms=   12 NActive=   12 NUniq=   12 SFac= 1.00D+00 NAtFMM=   60 NAOKFM=F Big=F
 Integral buffers will be    131072 words long.
 Raffenetti 2 integral format.
 Two-electron integral symmetry is turned on.
 One-electron integrals computed using PRISM.
 NBasis=   120 RedAO= T EigKep=  5.18D-04  NBF=   120
 NBsUse=   120 1.00D-06 EigRej= -1.00D+00 NBFU=   120
 Initial guess from the checkpoint file:  "checkpoint.chk"
 B after Tr=     0.000000    0.000000    0.000000
         Rot=    0.999630    0.000000   -0.000000   -0.027202 Ang=  -3.12 deg.
 Keep R1 ints in memory in canonical form, NReq=27305921.
 Requested convergence on RMS density matrix=1.00D-08 within 128 cycles.
 Requested convergence on MAX density matrix=1.00D-06.
 Requested convergence on             energy=1.00D-06.
 No special actions if energy rises.
 SCF Done:  E(RB3LYP) =  -232.258203199     A.U. after    8 cycles
            NFock=  8  Conv=0.56D-09     -V/T= 2.0101
 Calling FoFJK, ICntrl=      2127 FMM=F ISym2X=0 I1Cent= 0 IOpClX= 0 NMat=1 NMatS=1 NMatT=0.
 ***** Axes restored to original set *****
 -------------------------------------------------------------------
 Center     Atomic                   Forces (Hartrees/Bohr)
 Number     Number              X              Y              Z
 -------------------------------------------------------------------
      1        6          -0.000097056    0.000200616   -0.000010916
      2        6           0.000116143    0.000182426   -0.000007971
      3        6           0.000223582   -0.000017551    0.000003145
      4        6           0.000096449   -0.000200390    0.000008093
      5        6          -0.000114585   -0.000183135    0.000007535
      6        6          -0.000224003    0.000017037   -0.000000073
      7        1           0.000000722   -0.000000137    0.000000442
      8        1          -0.000000334    0.000000944   -0.000000458
      9        1          -0.000000059   -0.000000431    0.000000117
     10        1          -0.000000884    0.000000462    0.000000405
     11        1           0.000000243   -0.000000596   -0.000000377
     12        1          -0.000000217    0.000000754    0.000000060
 -------------------------------------------------------------------
 Cartesian Forces:  Max     0.000224003 RMS     0.000090315

 GradGradGradGradGradGradGradGradGradGradGradGradGradGradGradGradGradGrad
 Berny optimization.
 Using GEDIIS/GDIIS optimizer.
 FormGI is forming the generalized inverse of G from B-inverse, IUseBI=4.
 Internal  Forces:  Max     0.000225696 RMS     0.000073752
 Search for a local minimum.
 Step number   2 out of a maximum of   64
 All quantities printed in internal units (Hartrees-Bohrs-Radians)
 Mixed Optimization -- En-DIIS/RFO-DIIS
 Update second derivatives using D2CorX and points    1    2
 DE= -1.00D-04 DEPred=-1.04D-04 R= 9.66D-01
 TightC=F SS=  1.41D+00  RLast= 2.30D-02 DXNew= 5.0454D-01 6.9021D-02
 Trust test= 9.66D-01 RLast= 2.30D-02 DXMaxT set to 3.00D-01
 ITU=  1  0
 Use linear search instead of GDIIS.
     Eigenvalues ---    0.02101   0.02101   0.02101   0.02101   0.02101
     Eigenvalues ---    0.02101   0.02101   0.02101   0.02101   0.16000
     Eigenvalues ---    0.16000   0.16000   0.16000   0.16000   0.16000
     Eigenvalues ---    0.22000   0.22000   0.22000   0.34926   0.35713
     Eigenvalues ---    0.35713   0.35713   0.35713   0.35714   0.41563
     Eigenvalues ---    0.41564   0.45779   0.45779   0.45780   0.48495
 RFO step:  Lambda=-3.56287055D-07 EMin= 2.10135958D-02
 Quartic linear search produced a step of -0.03400.
 Iteration  1 RMS(Cart)=  0.00021879 RMS(Int)=  0.00000000
 Iteration  2 RMS(Cart)=  0.00000000 RMS(Int)=  0.00000000
 Variable       Old X    -DE/DX   Delta X   Delta X   Delta X     New X
                                 (Linear)    (Quad)   (Total)
    R1        2.63827   0.00022   0.00019   0.00026   0.00045   2.63872
    R2        2.63826   0.00022   0.00019   0.00026   0.00045   2.63872
    R3        2.05291  -0.00000  -0.00026   0.00027   0.00001   2.05292
    R4        2.63826   0.00023   0.00019   0.00028   0.00047   2.63873
    R5        2.05290   0.00000  -0.00026   0.00027   0.00002   2.05292
    R6        2.63826   0.00022   0.00019   0.00026   0.00045   2.63872
    R7        2.05291   0.00000  -0.00026   0.00027   0.00002   2.05292
    R8        2.63827   0.00022   0.00019   0.00026   0.00045   2.63872
    R9        2.05291  -0.00000  -0.00026   0.00027   0.00001   2.05292
   R10        2.63826   0.00023   0.00019   0.00028   0.00047   2.63873
   R11        2.05290   0.00000  -0.00026   0.00027   0.00002   2.05292
   R12        2.05290   0.00000  -0.00026   0.00027   0.00002   2.05292
    A1        2.09440  -0.00000  -0.00000  -0.00001  -0.00001   2.09439
    A2        2.09440  -0.00000  -0.00000  -0.00000  -0.00000   2.09439
    A3        2.09439   0.00000   0.00000   0.00001   0.00001   2.09440
    A4        2.09440   0.00000  -0.00000   0.00002   0.00002   2.09441
    A5        2.09439  -0.00000   0.00000  -0.00001  -0.00001   2.09439
    A6        2.09440  -0.00000  -0.00000  -0.00001  -0.00001   2.09439
    A7        2.09439  -0.00000   0.00000  -0.00001  -0.00001   2.09439
    A8        2.09439   0.00000   0.00000   0.00001   0.00001   2.09440
    A9        2.09440  -0.00000  -0.00000  -0.00000  -0.00000   2.09440
   A10        2.09440  -0.00000   0.00000  -0.00001  -0.00001   2.09439
   A11        2.09439   0.00000  -0.00000   0.00001   0.00001   2.09440
   A12        2.09440  -0.00000  -0.00000  -0.00000  -0.00000   2.09439
   A13        2.09440   0.00000  -0.00000   0.00002   0.00002   2.09441
   A14        2.09439  -0.00000   0.00000  -0.00000  -0.00000   2.09439
   A15        2.09440  -0.00000  -0.00000  -0.00001  -0.00001   2.09439
   A16        2.09439  -0.00000   0.00000  -0.00001  -0.00001   2.09439
   A17        2.09441  -0.00000   0.00000  -0.00001  -0.00001   2.09440
   A18        2.09439   0.00000  -0.00000   0.00002   0.00001   2.09440
    D1       -0.00001   0.00000   0.00000   0.00001   0.00001   0.00000
    D2        3.14158   0.00000   0.00000   0.00001   0.00001  -3.14159
    D3       -3.14158  -0.00000   0.00000  -0.00001  -0.00001   3.14159
    D4        0.00001  -0.00000   0.00000  -0.00001  -0.00001   0.00000
    D5        0.00001  -0.00000  -0.00000  -0.00002  -0.00002  -0.00001
    D6        3.14159  -0.00000  -0.00000   0.00000  -0.00000   3.14159
    D7        3.14159  -0.00000  -0.00000   0.00000  -0.00000   3.14159
    D8       -0.00002   0.00000  -0.00000   0.00002   0.00002  -0.00000
    D9       -0.00001   0.00000   0.00000   0.00001   0.00001   0.00000
   D10       -3.14159  -0.00000   0.00000  -0.00001  -0.00001  -3.14159
   D11        3.14159   0.00000   0.00000   0.00001   0.00001  -3.14159
   D12        0.00001  -0.00000   0.00000  -0.00001  -0.00001   0.00000
   D13        0.00001  -0.00000  -0.00000  -0.00001  -0.00002  -0.00000
   D14        3.14159   0.00000  -0.00000   0.00000   0.00000   3.14159
   D15        3.14159  -0.00000  -0.00000   0.00000  -0.00000   3.14159
   D16       -0.00002   0.00000  -0.00000   0.00002   0.00002  -0.00000
   D17       -0.00000   0.00000   0.00000   0.00001   0.00001   0.00000
   D18        3.14158   0.00000   0.00000   0.00001   0.00001  -3.14159
   D19       -3.14158  -0.00000  -0.00000  -0.00001  -0.00001   3.14159
   D20        0.00001  -0.00000   0.00000  -0.00001  -0.00001   0.00000
   D21       -0.00001   0.00000   0.00000   0.00001   0.00001   0.00000
   D22       -3.14159  -0.00000   0.00000  -0.00001  -0.00001  -3.14159
   D23        3.14159   0.00000   0.00000   0.00001   0.00001  -3.14159
   D24        0.00001  -0.00000   0.00000  -0.00001  -0.00001   0.00000
         Item               Value     Threshold  Converged?
 Maximum Force            0.000226     0.000450     YES
 RMS     Force            0.000074     0.000300     YES
 Maximum Displacement     0.000477     0.001800     YES
 RMS     Displacement     0.000219     0.001200     YES
 Predicted change in Energy=-3.036136D-07
 Optimization completed.
    -- Stationary point found.
                           ----------------------------
                           !   Optimized Parameters   !
                           ! (Angstroms and Degrees)  !
 --------------------------                            --------------------------
 ! Name  Definition              Value          Derivative Info.                !
 --------------------------------------------------------------------------------
 ! R1    R(1,2)                  1.3961         -DE/DX =    0.0002              !
 ! R2    R(1,6)                  1.3961         -DE/DX =    0.0002              !
 ! R3    R(1,7)                  1.0864         -DE/DX =    0.0                 !
 ! R4    R(2,3)                  1.3961         -DE/DX =    0.0002              !
 ! R5    R(2,12)                 1.0864         -DE/DX =    0.0                 !
 ! R6    R(3,4)                  1.3961         -DE/DX =    0.0002              !
 ! R7    R(3,11)                 1.0864         -DE/DX =    0.0                 !
 ! R8    R(4,5)                  1.3961         -DE/DX =    0.0002              !
 ! R9    R(4,10)                 1.0864         -DE/DX =    0.0                 !
 ! R10   R(5,6)                  1.3961         -DE/DX =    0.0002              !
 ! R11   R(5,9)                  1.0864         -DE/DX =    0.0                 !
 ! R12   R(6,8)                  1.0864         -DE/DX =    0.0                 !
 ! A1    A(2,1,6)              120.0001         -DE/DX =    0.0                 !
 ! A2    A(2,1,7)              120.0002         -DE/DX =    0.0                 !
 ! A3    A(6,1,7)              119.9997         -DE/DX =    0.0                 !
 ! A4    A(1,2,3)              120.0            -DE/DX =    0.0                 !
 ! A5    A(1,2,12)             119.9999         -DE/DX =    0.0                 !
 ! A6    A(3,2,12)             120.0001         -DE/DX =    0.0                 !
 ! A7    A(2,3,4)              119.9999         -DE/DX =    0.0                 !
 ! A8    A(2,3,11)             119.9997         -DE/DX =    0.0                 !
 ! A9    A(4,3,11)             120.0004         -DE/DX =    0.0                 !
 ! A10   A(3,4,5)              120.0001         -DE/DX =    0.0                 !
 ! A11   A(3,4,10)             119.9998         -DE/DX =    0.0                 !
 ! A12   A(5,4,10)             120.0002         -DE/DX =    0.0                 !
 ! A13   A(4,5,6)              120.0            -DE/DX =    0.0                 !
 ! A14   A(4,5,9)              119.9997         -DE/DX =    0.0                 !
 ! A15   A(6,5,9)              120.0003         -DE/DX =    0.0                 !
 ! A16   A(1,6,5)              119.9999         -DE/DX =    0.0                 !
 ! A17   A(1,6,8)              120.0006         -DE/DX =    0.0                 !
 ! A18   A(5,6,8)              119.9995         -DE/DX =    0.0                 !
 ! D1    D(6,1,2,3)             -0.0003         -DE/DX =    0.0                 !
 ! D2    D(6,1,2,12)          -180.0005         -DE/DX =    0.0                 !
 ! D3    D(7,1,2,3)            180.0006         -DE/DX =    0.0                 !
 ! D4    D(7,1,2,12)             0.0004         -DE/DX =    0.0                 !
 ! D5    D(2,1,6,5)              0.0008         -DE/DX =    0.0                 !
 ! D6    D(2,1,6,8)            179.9999         -DE/DX =    0.0                 !
 ! D7    D(7,1,6,5)            179.9999         -DE/DX =    0.0                 !
 ! D8    D(7,1,6,8)             -0.0011         -DE/DX =    0.0                 !
 ! D9    D(1,2,3,4)             -0.0004         -DE/DX =    0.0                 !
 ! D10   D(1,2,3,11)          -179.9996         -DE/DX =    0.0                 !
 ! D11   D(12,2,3,4)          -180.0003         -DE/DX =    0.0                 !
 ! D12   D(12,2,3,11)            0.0006         -DE/DX =    0.0                 !
 ! D13   D(2,3,4,5)              0.0007         -DE/DX =    0.0                 !
 ! D14   D(2,3,4,10)           179.9998         -DE/DX =    0.0                 !
 ! D15   D(11,3,4,5)           179.9999         -DE/DX =    0.0                 !
 ! D16   D(11,3,4,10)           -0.001          -DE/DX =    0.0                 !
 ! D17   D(3,4,5,6)             -0.0003         -DE/DX =    0.0                 !
 ! D18   D(3,4,5,9)           -180.0005         -DE/DX =    0.0                 !
 ! D19   D(10,4,5,6)           180.0006         -DE/DX =    0.0                 !
 ! D20   D(10,4,5,9)             0.0004         -DE/DX =    0.0                 !
 ! D21   D(4,5,6,1)             -0.0005         -DE/DX =    0.0                 !
 ! D22   D(4,5,6,8)           -179.9996         -DE/DX =    0.0                 !
 ! D23   D(9,5,6,1)           -180.0003         -DE/DX =    0.0                 !
 ! D24   D(9,5,6,8)              0.0006         -DE/DX =    0.0                 !
 --------------------------------------------------------------------------------
 GradGradGradGradGradGradGradGradGradGradGradGradGradGradGradGradGradGrad

                          Input orientation:                          
 ---------------------------------------------------------------------
 Center     Atomic      Atomic             Coordinates (Angstroms)
 Number     Number       Type             X           Y           Z
 ---------------------------------------------------------------------
      1          6           0       -1.677108    1.886066   -0.104342
      2          6           0       -0.284940    1.781734   -0.094111
      3          6           0        0.320482    0.525121   -0.034897
      4          6           0       -0.466265   -0.627159    0.014095
      5          6           0       -1.858435   -0.522826    0.003858
      6          6           0       -2.463856    0.733786   -0.055366
      7          1           0       -2.148207    2.863871   -0.150428
      8          1           0       -3.547140    0.814960   -0.063325
      9          1           0       -2.470619   -1.419451    0.041972
     10          1           0        0.004833   -1.604964    0.060169
     11          1           0        1.403766    0.443945   -0.026929
     12          1           0        0.327247    2.678356   -0.132229
 ---------------------------------------------------------------------
                    Distance matrix (angstroms):
                    1          2          3          4          5
     1  C    0.000000
     2  C    1.396110   0.000000
     3  C    2.418132   1.396108   0.000000
     4  C    2.792216   2.418130   1.396109   0.000000
     5  C    2.418129   2.792218   2.418135   1.396111   0.000000
     6  C    1.396109   2.418134   2.792221   2.418132   1.396107
     7  H    1.086351   2.155448   3.402575   3.878567   3.402571
     8  H    2.155451   3.402580   3.878571   3.402571   2.155438
     9  H    3.402574   3.878568   3.402574   2.155443   1.086350
    10  H    3.878567   3.402572   2.155443   1.086352   2.155449
    11  H    3.402572   2.155440   1.086351   2.155450   3.402580
    12  H    2.155444   1.086350   2.155444   3.402573   3.878568
                    6          7          8          9         10
     6  C    0.000000
     7  H    2.155442   0.000000
     8  H    1.086350   2.482465   0.000000
     9  H    2.155446   4.299745   2.482454   0.000000
    10  H    3.402576   4.964918   4.299744   2.482460   0.000000
    11  H    3.878571   4.299745   4.964922   4.299750   2.482464
    12  H    3.402575   2.482462   4.299752   4.964919   4.299744
                   11         12
    11  H    0.000000
    12  H    2.482454   0.000000
 Stoichiometry    C6H6
 Framework group  C1[X(C6H6)]
 Deg. of freedom    30
 Full point group                 C1      NOp   1
 Largest Abelian subgroup         C1      NOp   1
 Largest concise Abelian subgroup C1      NOp   1
                         Standard orientation:                         
 ---------------------------------------------------------------------
 Center     Atomic      Atomic             Coordinates (Angstroms)
 Number     Number       Type             X           Y           Z
 ---------------------------------------------------------------------
      1          6           0       -0.255412    1.372546    0.000004
      2          6           0        1.060956    0.907465    0.000001
      3          6           0        1.316368   -0.465081   -0.000004
      4          6           0        0.255412   -1.372546    0.000004
      5          6           0       -1.060956   -0.907465    0.000001
      6          6           0       -1.316368    0.465081   -0.000004
      7          1           0       -0.454158    2.440562   -0.000002
      8          1           0       -2.340671    0.826964    0.000000
      9          1           0       -1.886511   -1.613593   -0.000001
     10          1           0        0.454158   -2.440563   -0.000002
     11          1           0        2.340671   -0.826966    0.000000
     12          1           0        1.886512    1.613591   -0.000001
 ---------------------------------------------------------------------
 Rotational constants (GHZ):           5.6911636           5.6911399           2.8455759

 **********************************************************************

            Population analysis using the SCF Density.

 **********************************************************************

 Orbital symmetries:
       Occupied  (A) (A) (A) (A) (A) (A) (A) (A) (A) (A) (A) (A)
                 (A) (A) (A) (A) (A) (A) (A) (A) (A)
       Virtual   (A) (A) (A) (A) (A) (A) (A) (A) (A) (A) (A) (A)
                 (A) (A) (A) (A) (A) (A) (A) (A) (A) (A) (A) (A)
                 (A) (A) (A) (A) (A) (A) (A) (A) (A) (A) (A) (A)
                 (A) (A) (A) (A) (A) (A) (A) (A) (A) (A) (A) (A)
                 (A) (A) (A) (A) (A) (A) (A) (A) (A) (A) (A) (A)
                 (A) (A) (A) (A) (A) (A) (A) (A) (A) (A) (A) (A)
                 (A) (A) (A) (A) (A) (A) (A) (A) (A) (A) (A) (A)
                 (A) (A) (A) (A) (A) (A) (A) (A) (A) (A) (A) (A)
                 (A) (A) (A)
 The electronic state is 1-A.
 Alpha  occ. eigenvalues --  -10.18794 -10.18768 -10.18768 -10.18713 -10.18712
 Alpha  occ. eigenvalues --  -10.18686  -0.84682  -0.74006  -0.74005  -0.59738
 Alpha  occ. eigenvalues --   -0.59738  -0.51792  -0.45812  -0.43858  -0.41654
 Alpha  occ. eigenvalues --   -0.41654  -0.36002  -0.33959  -0.33959  -0.24693
 Alpha  occ. eigenvalues --   -0.24693
 Alpha virt. eigenvalues --    0.00269   0.00269   0.09107   0.14508   0.14508
 Alpha virt. eigenvalues --    0.16194   0.18184   0.18184   0.19067   0.30074
 Alpha virt. eigenvalues --    0.30074   0.31826   0.31826   0.46722   0.52699
 Alpha virt. eigenvalues --    0.54839   0.55045   0.56123   0.59187   0.60127
 Alpha virt. eigenvalues --    0.60127   0.60151   0.60151   0.62466   0.62466
 Alpha virt. eigenvalues --    0.66712   0.66712   0.74251   0.81972   0.81972
 Alpha virt. eigenvalues --    0.82624   0.84410   0.84410   0.92450   0.93703
 Alpha virt. eigenvalues --    0.93703   0.95849   1.07898   1.07898   1.12966
 Alpha virt. eigenvalues --    1.12967   1.20182   1.26173   1.30036   1.40670
 Alpha virt. eigenvalues --    1.40670   1.42841   1.42841   1.43153   1.43153
 Alpha virt. eigenvalues --    1.74985   1.75796   1.81470   1.88207   1.92343
 Alpha virt. eigenvalues --    1.92343   1.96929   1.96929   1.97809   1.97809
 Alpha virt. eigenvalues --    2.02396   2.07431   2.07431   2.29660   2.29660
 Alpha virt. eigenvalues --    2.35648   2.35648   2.36672   2.41081   2.41470
 Alpha virt. eigenvalues --    2.41470   2.44339   2.44340   2.49451   2.49451
 Alpha virt. eigenvalues --    2.52561   2.59359   2.60008   2.60008   2.65805
 Alpha virt. eigenvalues --    2.77167   2.81136   2.81136   3.04901   3.04901
 Alpha virt. eigenvalues --    3.19258   3.23462   3.24752   3.24752   3.39439
 Alpha virt. eigenvalues --    3.50873   3.50873   3.95264   4.13058   4.16190
 Alpha virt. eigenvalues --    4.16190   4.43905   4.43905   4.83087
          Condensed to atoms (all electrons):
               1          2          3          4          5          6
     1  C    4.803159   0.549569  -0.035822  -0.040532  -0.035822   0.549572
     2  C    0.549569   4.803143   0.549570  -0.035822  -0.040532  -0.035822
     3  C   -0.035822   0.549570   4.803157   0.549572  -0.035822  -0.040531
     4  C   -0.040532  -0.035822   0.549572   4.803159   0.549569  -0.035822
     5  C   -0.035822  -0.040532  -0.035822   0.549569   4.803144   0.549571
     6  C    0.549572  -0.035822  -0.040531  -0.035822   0.549571   4.803156
     7  H    0.368523  -0.042233   0.004827   0.000601   0.004827  -0.042233
     8  H   -0.042233   0.004827   0.000601   0.004827  -0.042234   0.368523
     9  H    0.004827   0.000601   0.004827  -0.042234   0.368521  -0.042234
    10  H    0.000601   0.004827  -0.042233   0.368523  -0.042233   0.004827
    11  H    0.004827  -0.042234   0.368523  -0.042233   0.004827   0.000601
    12  H   -0.042234   0.368522  -0.042234   0.004827   0.000601   0.004827
               7          8          9         10         11         12
     1  C    0.368523  -0.042233   0.004827   0.000601   0.004827  -0.042234
     2  C   -0.042233   0.004827   0.000601   0.004827  -0.042234   0.368522
     3  C    0.004827   0.000601   0.004827  -0.042233   0.368523  -0.042234
     4  C    0.000601   0.004827  -0.042234   0.368523  -0.042233   0.004827
     5  C    0.004827  -0.042234   0.368521  -0.042233   0.004827   0.000601
     6  C   -0.042233   0.368523  -0.042234   0.004827   0.000601   0.004827
     7  H    0.634531  -0.006454  -0.000189   0.000015  -0.000189  -0.006454
     8  H   -0.006454   0.634531  -0.006454  -0.000189   0.000015  -0.000189
     9  H   -0.000189  -0.006454   0.634536  -0.006454  -0.000189   0.000015
    10  H    0.000015  -0.000189  -0.006454   0.634531  -0.006454  -0.000189
    11  H   -0.000189   0.000015  -0.000189  -0.006454   0.634531  -0.006454
    12  H   -0.006454  -0.000189   0.000015  -0.000189  -0.006454   0.634536
 Mulliken charges:
               1
     1  C   -0.084434
     2  C   -0.084416
     3  C   -0.084434
     4  C   -0.084434
     5  C   -0.084416
     6  C   -0.084434
     7  H    0.084428
     8  H    0.084428
     9  H    0.084427
    10  H    0.084428
    11  H    0.084428
    12  H    0.084427
 Sum of Mulliken charges =  -0.00000
 Mulliken charges with hydrogens summed into heavy atoms:
               1
     1  C   -0.000005
     2  C    0.000011
     3  C   -0.000005
     4  C   -0.000005
     5  C    0.000011
     6  C   -0.000005
 Electronic spatial extent (au):  <R**2>=            458.0664
 Charge=             -0.0000 electrons
 Dipole moment (field-independent basis, Debye):
    X=              0.0000    Y=             -0.0000    Z=             -0.0000  Tot=              0.0000
 Quadrupole moment (field-independent basis, Debye-Ang):
   XX=            -31.4743   YY=            -31.4743   ZZ=            -38.5320
   XY=              0.0000   XZ=             -0.0000   YZ=              0.0000
 Traceless Quadrupole moment (field-independent basis, Debye-Ang):
   XX=              2.3526   YY=              2.3526   ZZ=             -4.7052
   XY=              0.0000   XZ=             -0.0000   YZ=              0.0000
 Octapole moment (field-independent basis, Debye-Ang**2):
  XXX=              0.0000  YYY=             -0.0000  ZZZ=             -0.0000  XYY=             -0.0000
  XXY=             -0.0000  XXZ=              0.0000  XZZ=             -0.0000  YZZ=              0.0000
  YYZ=             -0.0000  XYZ=             -0.0000
 Hexadecapole moment (field-independent basis, Debye-Ang**3):
 XXXX=           -270.6858 YYYY=           -270.6852 ZZZZ=            -39.8990 XXXY=             -0.0001
 XXXZ=             -0.0000 YYYX=             -0.0001 YYYZ=              0.0000 ZZZX=             -0.0000
 ZZZY=              0.0000 XXYY=            -90.2287 XXZZ=            -60.4129 YYZZ=            -60.4127
 XXYZ=             -0.0000 YYXZ=             -0.0000 ZZXY=              0.0000
 N-N= 2.032680127664D+02 E-N=-9.439067306110D+02  KE= 2.299455693294D+02
 1\1\GINC-DESKTOP-PRN5QE3\FOpt\RB3LYP\6-31G(d,p)\C6H6\SHOHEI\22-Sep-202
 3\0\\# B3LYP/6-31G(d,p) OPT FREQ\\Benzeno\\0,1\C,-1.6771080464,1.88606
 636,-0.1043423602\C,-0.2849397395,1.7817339433,-0.0941110161\C,0.32048
 2274,0.5251213135,-0.0348966687\C,-0.4662652297,-0.6271588303,0.014095
 3254\C,-1.8584347422,-0.5228261284,0.0038575422\C,-2.4638556789,0.7337
 859438,-0.0553664442\H,-2.1482065196,2.8638705585,-0.1504284935\H,-3.5
 47139812,0.8149604333,-0.0633253798\H,-2.4706186868,-1.4194505503,0.04
 19716698\H,0.0048334142,-1.6049640303,0.0601690992\H,1.4037663343,0.44
 39445169,-0.0269286445\H,0.3272469327,2.6783561701,-0.1322289297\\Vers
 ion=EM64L-G16RevB.01\State=1-A\HF=-232.2582032\RMSD=5.593e-10\RMSF=9.0
 32e-05\Dipole=0.0000002,-0.0000005,-0.0000015\Quadrupole=1.7490167,1.7
 383639,-3.4873806,0.0009488,0.0207518,-0.236774\PG=C01 [X(C6H6)]\\@


 SOME THINGS ARE EASY, THEY ARE ONLY HARD TO DO.
            -- A. EINSTEIN TO J. O. HIRSCHFELDER
 THE ONLY TROUBLE WITH A SURE THING IS THE UNCERTAINTY.
     -- FROM A TEABAG (BELONGING TO W.H.?)
 Job cpu time:       0 days  0 hours  0 minutes 55.7 seconds.
 Elapsed time:       0 days  0 hours  0 minutes 56.1 seconds.
 File lengths (MBytes):  RWF=     10 Int=      0 D2E=      0 Chk=      2 Scr=      1
 Normal termination of Gaussian 16 at Fri Sep 22 15:10:45 2023.
 Link1:  Proceeding to internal job step number  2.
 ----------------------------------------------------------------------
 #N Geom=AllCheck Guess=TCheck SCRF=Check GenChk RB3LYP/6-31G(d,p) Freq
 ----------------------------------------------------------------------
 1/10=4,29=7,30=1,38=1,40=1/1,3;
 2/12=2,40=1/2;
 3/5=1,6=6,7=101,11=2,14=-4,25=1,30=1,70=2,71=2,74=-5,116=1,140=1/1,2,3;
 4/5=101/1;
 5/5=2,38=6,98=1/2;
 8/6=4,10=90,11=11/1;
 11/6=1,8=1,9=11,15=111,16=1/1,2,10;
 10/6=1/2;
 6/7=2,8=2,9=2,10=2,28=1/1;
 7/8=1,10=1,25=1/1,2,3,16;
 1/10=4,30=1/3;
 99//99;
 Structure from the checkpoint file:  "checkpoint.chk"
 -------
 Benzeno
 -------
 Charge =  0 Multiplicity = 1
 Redundant internal coordinates found in file.  (old form).
 C,0,-1.6771080464,1.88606636,-0.1043423602
 C,0,-0.2849397395,1.7817339433,-0.0941110161
 C,0,0.320482274,0.5251213135,-0.0348966687
 C,0,-0.4662652297,-0.6271588303,0.0140953254
 C,0,-1.8584347422,-0.5228261284,0.0038575422
 C,0,-2.4638556789,0.7337859438,-0.0553664442
 H,0,-2.1482065196,2.8638705585,-0.1504284935
 H,0,-3.547139812,0.8149604333,-0.0633253798
 H,0,-2.4706186868,-1.4194505503,0.0419716698
 H,0,0.0048334142,-1.6049640303,0.0601690992
 H,0,1.4037663343,0.4439445169,-0.0269286445
 H,0,0.3272469327,2.6783561701,-0.1322289297
 Recover connectivity data from disk.

 GradGradGradGradGradGradGradGradGradGradGradGradGradGradGradGradGradGrad
 Berny optimization.
 Initialization pass.
                           ----------------------------
                           !    Initial Parameters    !
                           ! (Angstroms and Degrees)  !
 --------------------------                            --------------------------
 ! Name  Definition              Value          Derivative Info.                !
 --------------------------------------------------------------------------------
 ! R1    R(1,2)                  1.3961         calculate D2E/DX2 analytically  !
 ! R2    R(1,6)                  1.3961         calculate D2E/DX2 analytically  !
 ! R3    R(1,7)                  1.0864         calculate D2E/DX2 analytically  !
 ! R4    R(2,3)                  1.3961         calculate D2E/DX2 analytically  !
 ! R5    R(2,12)                 1.0864         calculate D2E/DX2 analytically  !
 ! R6    R(3,4)                  1.3961         calculate D2E/DX2 analytically  !
 ! R7    R(3,11)                 1.0864         calculate D2E/DX2 analytically  !
 ! R8    R(4,5)                  1.3961         calculate D2E/DX2 analytically  !
 ! R9    R(4,10)                 1.0864         calculate D2E/DX2 analytically  !
 ! R10   R(5,6)                  1.3961         calculate D2E/DX2 analytically  !
 ! R11   R(5,9)                  1.0864         calculate D2E/DX2 analytically  !
 ! R12   R(6,8)                  1.0864         calculate D2E/DX2 analytically  !
 ! A1    A(2,1,6)              120.0001         calculate D2E/DX2 analytically  !
 ! A2    A(2,1,7)              120.0002         calculate D2E/DX2 analytically  !
 ! A3    A(6,1,7)              119.9997         calculate D2E/DX2 analytically  !
 ! A4    A(1,2,3)              120.0            calculate D2E/DX2 analytically  !
 ! A5    A(1,2,12)             119.9999         calculate D2E/DX2 analytically  !
 ! A6    A(3,2,12)             120.0001         calculate D2E/DX2 analytically  !
 ! A7    A(2,3,4)              119.9999         calculate D2E/DX2 analytically  !
 ! A8    A(2,3,11)             119.9997         calculate D2E/DX2 analytically  !
 ! A9    A(4,3,11)             120.0004         calculate D2E/DX2 analytically  !
 ! A10   A(3,4,5)              120.0001         calculate D2E/DX2 analytically  !
 ! A11   A(3,4,10)             119.9998         calculate D2E/DX2 analytically  !
 ! A12   A(5,4,10)             120.0002         calculate D2E/DX2 analytically  !
 ! A13   A(4,5,6)              120.0            calculate D2E/DX2 analytically  !
 ! A14   A(4,5,9)              119.9997         calculate D2E/DX2 analytically  !
 ! A15   A(6,5,9)              120.0003         calculate D2E/DX2 analytically  !
 ! A16   A(1,6,5)              119.9999         calculate D2E/DX2 analytically  !
 ! A17   A(1,6,8)              120.0006         calculate D2E/DX2 analytically  !
 ! A18   A(5,6,8)              119.9995         calculate D2E/DX2 analytically  !
 ! D1    D(6,1,2,3)             -0.0003         calculate D2E/DX2 analytically  !
 ! D2    D(6,1,2,12)           179.9995         calculate D2E/DX2 analytically  !
 ! D3    D(7,1,2,3)           -179.9994         calculate D2E/DX2 analytically  !
 ! D4    D(7,1,2,12)             0.0004         calculate D2E/DX2 analytically  !
 ! D5    D(2,1,6,5)              0.0008         calculate D2E/DX2 analytically  !
 ! D6    D(2,1,6,8)            179.9999         calculate D2E/DX2 analytically  !
 ! D7    D(7,1,6,5)            179.9999         calculate D2E/DX2 analytically  !
 ! D8    D(7,1,6,8)             -0.0011         calculate D2E/DX2 analytically  !
 ! D9    D(1,2,3,4)             -0.0004         calculate D2E/DX2 analytically  !
 ! D10   D(1,2,3,11)          -179.9996         calculate D2E/DX2 analytically  !
 ! D11   D(12,2,3,4)           179.9997         calculate D2E/DX2 analytically  !
 ! D12   D(12,2,3,11)            0.0006         calculate D2E/DX2 analytically  !
 ! D13   D(2,3,4,5)              0.0007         calculate D2E/DX2 analytically  !
 ! D14   D(2,3,4,10)           179.9998         calculate D2E/DX2 analytically  !
 ! D15   D(11,3,4,5)           179.9999         calculate D2E/DX2 analytically  !
 ! D16   D(11,3,4,10)           -0.001          calculate D2E/DX2 analytically  !
 ! D17   D(3,4,5,6)             -0.0003         calculate D2E/DX2 analytically  !
 ! D18   D(3,4,5,9)            179.9995         calculate D2E/DX2 analytically  !
 ! D19   D(10,4,5,6)          -179.9994         calculate D2E/DX2 analytically  !
 ! D20   D(10,4,5,9)             0.0004         calculate D2E/DX2 analytically  !
 ! D21   D(4,5,6,1)             -0.0005         calculate D2E/DX2 analytically  !
 ! D22   D(4,5,6,8)           -179.9996         calculate D2E/DX2 analytically  !
 ! D23   D(9,5,6,1)            179.9997         calculate D2E/DX2 analytically  !
 ! D24   D(9,5,6,8)              0.0006         calculate D2E/DX2 analytically  !
 --------------------------------------------------------------------------------
 Trust Radius=3.00D-01 FncErr=1.00D-07 GrdErr=1.00D-07 EigMax=2.50D+02 EigMin=1.00D-04
 Number of steps in this run=      2 maximum allowed number of steps=      2.
 GradGradGradGradGradGradGradGradGradGradGradGradGradGradGradGradGradGrad

                          Input orientation:                          
 ---------------------------------------------------------------------
 Center     Atomic      Atomic             Coordinates (Angstroms)
 Number     Number       Type             X           Y           Z
 ---------------------------------------------------------------------
      1          6           0       -1.677108    1.886066   -0.104342
      2          6           0       -0.284940    1.781734   -0.094111
      3          6           0        0.320482    0.525121   -0.034897
      4          6           0       -0.466265   -0.627159    0.014095
      5          6           0       -1.858435   -0.522826    0.003858
      6          6           0       -2.463856    0.733786   -0.055366
      7          1           0       -2.148207    2.863871   -0.150428
      8          1           0       -3.547140    0.814960   -0.063325
      9          1           0       -2.470619   -1.419451    0.041972
     10          1           0        0.004833   -1.604964    0.060169
     11          1           0        1.403766    0.443945   -0.026929
     12          1           0        0.327247    2.678356   -0.132229
 ---------------------------------------------------------------------
                    Distance matrix (angstroms):
                    1          2          3          4          5
     1  C    0.000000
     2  C    1.396110   0.000000
     3  C    2.418132   1.396108   0.000000
     4  C    2.792216   2.418130   1.396109   0.000000
     5  C    2.418129   2.792218   2.418135   1.396111   0.000000
     6  C    1.396109   2.418134   2.792221   2.418132   1.396107
     7  H    1.086351   2.155448   3.402575   3.878567   3.402571
     8  H    2.155451   3.402580   3.878571   3.402571   2.155438
     9  H    3.402574   3.878568   3.402574   2.155443   1.086350
    10  H    3.878567   3.402572   2.155443   1.086352   2.155449
    11  H    3.402572   2.155440   1.086351   2.155450   3.402580
    12  H    2.155444   1.086350   2.155444   3.402573   3.878568
                    6          7          8          9         10
     6  C    0.000000
     7  H    2.155442   0.000000
     8  H    1.086350   2.482465   0.000000
     9  H    2.155446   4.299745   2.482454   0.000000
    10  H    3.402576   4.964918   4.299744   2.482460   0.000000
    11  H    3.878571   4.299745   4.964922   4.299750   2.482464
    12  H    3.402575   2.482462   4.299752   4.964919   4.299744
                   11         12
    11  H    0.000000
    12  H    2.482454   0.000000
 Stoichiometry    C6H6
 Framework group  C1[X(C6H6)]
 Deg. of freedom    30
 Full point group                 C1      NOp   1
 Largest Abelian subgroup         C1      NOp   1
 Largest concise Abelian subgroup C1      NOp   1
                         Standard orientation:                         
 ---------------------------------------------------------------------
 Center     Atomic      Atomic             Coordinates (Angstroms)
 Number     Number       Type             X           Y           Z
 ---------------------------------------------------------------------
      1          6           0       -0.255412    1.372546    0.000004
      2          6           0        1.060956    0.907465    0.000001
      3          6           0        1.316368   -0.465081   -0.000004
      4          6           0        0.255412   -1.372546    0.000004
      5          6           0       -1.060956   -0.907465    0.000001
      6          6           0       -1.316368    0.465081   -0.000004
      7          1           0       -0.454158    2.440562   -0.000002
      8          1           0       -2.340671    0.826964    0.000000
      9          1           0       -1.886511   -1.613593   -0.000001
     10          1           0        0.454158   -2.440563   -0.000002
     11          1           0        2.340671   -0.826966    0.000000
     12          1           0        1.886512    1.613591   -0.000001
 ---------------------------------------------------------------------
 Rotational constants (GHZ):           5.6911636           5.6911399           2.8455759
 Standard basis: 6-31G(d,p) (6D, 7F)
 There are   120 symmetry adapted cartesian basis functions of A   symmetry.
 There are   120 symmetry adapted basis functions of A   symmetry.
   120 basis functions,   210 primitive gaussians,   120 cartesian basis functions
    21 alpha electrons       21 beta electrons
       nuclear repulsion energy       203.2680127664 Hartrees.
 NAtoms=   12 NActive=   12 NUniq=   12 SFac= 1.00D+00 NAtFMM=   60 NAOKFM=F Big=F
 Integral buffers will be    131072 words long.
 Raffenetti 2 integral format.
 Two-electron integral symmetry is turned on.
 One-electron integrals computed using PRISM.
 NBasis=   120 RedAO= T EigKep=  5.18D-04  NBF=   120
 NBsUse=   120 1.00D-06 EigRej= -1.00D+00 NBFU=   120
 Initial guess from the checkpoint file:  "checkpoint.chk"
 B after Tr=    -0.000000   -0.000000   -0.000000
         Rot=    1.000000   -0.000000   -0.000000    0.000000 Ang=   0.00 deg.
 Keep R1 ints in memory in canonical form, NReq=27305921.
 Requested convergence on RMS density matrix=1.00D-08 within 128 cycles.
 Requested convergence on MAX density matrix=1.00D-06.
 Requested convergence on             energy=1.00D-06.
 No special actions if energy rises.
 SCF Done:  E(RB3LYP) =  -232.258203199     A.U. after    1 cycles
            NFock=  1  Conv=0.61D-09     -V/T= 2.0101
 DoSCS=F DFT=T ScalE2(SS,OS)=  1.000000  1.000000
 Range of M.O.s used for correlation:     1   120
 NBasis=   120 NAE=    21 NBE=    21 NFC=     0 NFV=     0
 NROrb=    120 NOA=    21 NOB=    21 NVA=    99 NVB=    99

 **** Warning!!: The largest alpha MO coefficient is  0.10777770D+02

 Symmetrizing basis deriv contribution to polar:
 IMax=3 JMax=2 DiffMx= 0.00D+00
 G2DrvN: will do    13 centers at a time, making    1 passes.
 Calling FoFCou, ICntrl=  3107 FMM=F I1Cent=   0 AccDes= 0.00D+00.
 End of G2Drv F.D. properties file   721 does not exist.
 End of G2Drv F.D. properties file   722 does not exist.
 End of G2Drv F.D. properties file   788 does not exist.
          IDoAtm=111111111111
          Differentiating once with respect to electric field.
                with respect to dipole field.
          Differentiating once with respect to nuclear coordinates.
 Keep R1 ints in memory in canonical form, NReq=27314458.
          There are    39 degrees of freedom in the 1st order CPHF.  IDoFFX=6 NUNeed=     3.
     36 vectors produced by pass  0 Test12= 5.33D-15 2.56D-09 XBig12= 8.68D+01 4.08D+00.
 AX will form    36 AO Fock derivatives at one time.
     36 vectors produced by pass  1 Test12= 5.33D-15 2.56D-09 XBig12= 1.35D+01 1.02D+00.
     36 vectors produced by pass  2 Test12= 5.33D-15 2.56D-09 XBig12= 1.02D-01 1.03D-01.
     36 vectors produced by pass  3 Test12= 5.33D-15 2.56D-09 XBig12= 1.15D-04 1.80D-03.
     36 vectors produced by pass  4 Test12= 5.33D-15 2.56D-09 XBig12= 5.51D-08 5.62D-05.
     25 vectors produced by pass  5 Test12= 5.33D-15 2.56D-09 XBig12= 2.09D-11 9.21D-07.
      3 vectors produced by pass  6 Test12= 5.33D-15 2.56D-09 XBig12= 7.13D-15 1.91D-08.
 InvSVY:  IOpt=1 It=  1 EMax= 7.11D-15
 Solved reduced A of dimension   208 with    39 vectors.
 Isotropic polarizability for W=    0.000000       54.99 Bohr**3.
 End of Minotr F.D. properties file   721 does not exist.
 End of Minotr F.D. properties file   722 does not exist.
 End of Minotr F.D. properties file   788 does not exist.

 **********************************************************************

            Population analysis using the SCF Density.

 **********************************************************************

 Orbital symmetries:
       Occupied  (A) (A) (A) (A) (A) (A) (A) (A) (A) (A) (A) (A)
                 (A) (A) (A) (A) (A) (A) (A) (A) (A)
       Virtual   (A) (A) (A) (A) (A) (A) (A) (A) (A) (A) (A) (A)
                 (A) (A) (A) (A) (A) (A) (A) (A) (A) (A) (A) (A)
                 (A) (A) (A) (A) (A) (A) (A) (A) (A) (A) (A) (A)
                 (A) (A) (A) (A) (A) (A) (A) (A) (A) (A) (A) (A)
                 (A) (A) (A) (A) (A) (A) (A) (A) (A) (A) (A) (A)
                 (A) (A) (A) (A) (A) (A) (A) (A) (A) (A) (A) (A)
                 (A) (A) (A) (A) (A) (A) (A) (A) (A) (A) (A) (A)
                 (A) (A) (A) (A) (A) (A) (A) (A) (A) (A) (A) (A)
                 (A) (A) (A)
 The electronic state is 1-A.
 Alpha  occ. eigenvalues --  -10.18794 -10.18768 -10.18768 -10.18713 -10.18712
 Alpha  occ. eigenvalues --  -10.18686  -0.84682  -0.74006  -0.74005  -0.59738
 Alpha  occ. eigenvalues --   -0.59738  -0.51792  -0.45812  -0.43858  -0.41654
 Alpha  occ. eigenvalues --   -0.41654  -0.36002  -0.33959  -0.33959  -0.24693
 Alpha  occ. eigenvalues --   -0.24693
 Alpha virt. eigenvalues --    0.00269   0.00269   0.09107   0.14508   0.14508
 Alpha virt. eigenvalues --    0.16194   0.18184   0.18184   0.19067   0.30074
 Alpha virt. eigenvalues --    0.30074   0.31826   0.31826   0.46722   0.52699
 Alpha virt. eigenvalues --    0.54839   0.55045   0.56123   0.59187   0.60127
 Alpha virt. eigenvalues --    0.60127   0.60151   0.60151   0.62466   0.62466
 Alpha virt. eigenvalues --    0.66712   0.66712   0.74251   0.81972   0.81972
 Alpha virt. eigenvalues --    0.82624   0.84410   0.84410   0.92450   0.93703
 Alpha virt. eigenvalues --    0.93703   0.95849   1.07898   1.07898   1.12966
 Alpha virt. eigenvalues --    1.12967   1.20182   1.26173   1.30036   1.40670
 Alpha virt. eigenvalues --    1.40670   1.42841   1.42841   1.43153   1.43153
 Alpha virt. eigenvalues --    1.74985   1.75796   1.81470   1.88207   1.92343
 Alpha virt. eigenvalues --    1.92343   1.96929   1.96929   1.97809   1.97809
 Alpha virt. eigenvalues --    2.02396   2.07431   2.07431   2.29660   2.29660
 Alpha virt. eigenvalues --    2.35648   2.35648   2.36672   2.41081   2.41470
 Alpha virt. eigenvalues --    2.41470   2.44339   2.44340   2.49451   2.49451
 Alpha virt. eigenvalues --    2.52561   2.59359   2.60008   2.60008   2.65805
 Alpha virt. eigenvalues --    2.77167   2.81136   2.81136   3.04901   3.04901
 Alpha virt. eigenvalues --    3.19258   3.23462   3.24752   3.24752   3.39439
 Alpha virt. eigenvalues --    3.50873   3.50873   3.95264   4.13058   4.16190
 Alpha virt. eigenvalues --    4.16190   4.43905   4.43905   4.83087
          Condensed to atoms (all electrons):
               1          2          3          4          5          6
     1  C    4.803159   0.549569  -0.035822  -0.040532  -0.035822   0.549572
     2  C    0.549569   4.803143   0.549570  -0.035822  -0.040532  -0.035822
     3  C   -0.035822   0.549570   4.803157   0.549572  -0.035822  -0.040531
     4  C   -0.040532  -0.035822   0.549572   4.803160   0.549569  -0.035822
     5  C   -0.035822  -0.040532  -0.035822   0.549569   4.803144   0.549571
     6  C    0.549572  -0.035822  -0.040531  -0.035822   0.549571   4.803156
     7  H    0.368523  -0.042233   0.004827   0.000601   0.004827  -0.042233
     8  H   -0.042233   0.004827   0.000601   0.004827  -0.042234   0.368523
     9  H    0.004827   0.000601   0.004827  -0.042234   0.368521  -0.042234
    10  H    0.000601   0.004827  -0.042233   0.368523  -0.042233   0.004827
    11  H    0.004827  -0.042234   0.368523  -0.042233   0.004827   0.000601
    12  H   -0.042234   0.368522  -0.042234   0.004827   0.000601   0.004827
               7          8          9         10         11         12
     1  C    0.368523  -0.042233   0.004827   0.000601   0.004827  -0.042234
     2  C   -0.042233   0.004827   0.000601   0.004827  -0.042234   0.368522
     3  C    0.004827   0.000601   0.004827  -0.042233   0.368523  -0.042234
     4  C    0.000601   0.004827  -0.042234   0.368523  -0.042233   0.004827
     5  C    0.004827  -0.042234   0.368521  -0.042233   0.004827   0.000601
     6  C   -0.042233   0.368523  -0.042234   0.004827   0.000601   0.004827
     7  H    0.634531  -0.006454  -0.000189   0.000015  -0.000189  -0.006454
     8  H   -0.006454   0.634531  -0.006454  -0.000189   0.000015  -0.000189
     9  H   -0.000189  -0.006454   0.634536  -0.006454  -0.000189   0.000015
    10  H    0.000015  -0.000189  -0.006454   0.634531  -0.006454  -0.000189
    11  H   -0.000189   0.000015  -0.000189  -0.006454   0.634531  -0.006454
    12  H   -0.006454  -0.000189   0.000015  -0.000189  -0.006454   0.634536
 Mulliken charges:
               1
     1  C   -0.084434
     2  C   -0.084416
     3  C   -0.084434
     4  C   -0.084434
     5  C   -0.084416
     6  C   -0.084434
     7  H    0.084428
     8  H    0.084428
     9  H    0.084427
    10  H    0.084428
    11  H    0.084428
    12  H    0.084427
 Sum of Mulliken charges =  -0.00000
 Mulliken charges with hydrogens summed into heavy atoms:
               1
     1  C   -0.000005
     2  C    0.000011
     3  C   -0.000005
     4  C   -0.000006
     5  C    0.000011
     6  C   -0.000005
 APT charges:
               1
     1  C   -0.015163
     2  C   -0.015208
     3  C   -0.015211
[...]
   D17       -0.00000   0.00000   0.00000   0.00000   0.00000   0.00000
   D18        3.14158   0.00000   0.00000   0.00001   0.00001   3.14159
   D19       -3.14158  -0.00000   0.00000  -0.00001  -0.00001  -3.14159
   D20        0.00001  -0.00000   0.00000  -0.00001  -0.00001   0.00000
   D21       -0.00001   0.00000   0.00000   0.00001   0.00001   0.00000
   D22       -3.14159  -0.00000   0.00000  -0.00001  -0.00001   3.14159
   D23        3.14159   0.00000   0.00000   0.00000   0.00000   3.14159
   D24        0.00001  -0.00000   0.00000  -0.00001  -0.00001   0.00000
         Item               Value     Threshold  Converged?
 Maximum Force            0.000226     0.000450     YES
 RMS     Force            0.000074     0.000300     YES
 Maximum Displacement     0.000439     0.001800     YES
 RMS     Displacement     0.000200     0.001200     YES
 Predicted change in Energy=-2.854315D-07
 Optimization completed.
    -- Stationary point found.
                           ----------------------------
                           !   Optimized Parameters   !
                           ! (Angstroms and Degrees)  !
 --------------------------                            --------------------------
 ! Name  Definition              Value          Derivative Info.                !
 --------------------------------------------------------------------------------
 ! R1    R(1,2)                  1.3961         -DE/DX =    0.0002              !
 ! R2    R(1,6)                  1.3961         -DE/DX =    0.0002              !
 ! R3    R(1,7)                  1.0864         -DE/DX =    0.0                 !
 ! R4    R(2,3)                  1.3961         -DE/DX =    0.0002              !
 ! R5    R(2,12)                 1.0864         -DE/DX =    0.0                 !
 ! R6    R(3,4)                  1.3961         -DE/DX =    0.0002              !
 ! R7    R(3,11)                 1.0864         -DE/DX =    0.0                 !
 ! R8    R(4,5)                  1.3961         -DE/DX =    0.0002              !
 ! R9    R(4,10)                 1.0864         -DE/DX =    0.0                 !
 ! R10   R(5,6)                  1.3961         -DE/DX =    0.0002              !
 ! R11   R(5,9)                  1.0864         -DE/DX =    0.0                 !
 ! R12   R(6,8)                  1.0864         -DE/DX =    0.0                 !
 ! A1    A(2,1,6)              120.0001         -DE/DX =    0.0                 !
 ! A2    A(2,1,7)              120.0002         -DE/DX =    0.0                 !
 ! A3    A(6,1,7)              119.9997         -DE/DX =    0.0                 !
 ! A4    A(1,2,3)              120.0            -DE/DX =    0.0                 !
 ! A5    A(1,2,12)             119.9999         -DE/DX =    0.0                 !
 ! A6    A(3,2,12)             120.0001         -DE/DX =    0.0                 !
 ! A7    A(2,3,4)              119.9999         -DE/DX =    0.0                 !
 ! A8    A(2,3,11)             119.9997         -DE/DX =    0.0                 !
 ! A9    A(4,3,11)             120.0004         -DE/DX =    0.0                 !
 ! A10   A(3,4,5)              120.0001         -DE/DX =    0.0                 !
 ! A11   A(3,4,10)             119.9998         -DE/DX =    0.0                 !
 ! A12   A(5,4,10)             120.0002         -DE/DX =    0.0                 !
 ! A13   A(4,5,6)              120.0            -DE/DX =    0.0                 !
 ! A14   A(4,5,9)              119.9997         -DE/DX =    0.0                 !
 ! A15   A(6,5,9)              120.0003         -DE/DX =    0.0                 !
 ! A16   A(1,6,5)              119.9999         -DE/DX =    0.0                 !
 ! A17   A(1,6,8)              120.0006         -DE/DX =    0.0                 !
 ! A18   A(5,6,8)              119.9995         -DE/DX =    0.0                 !
 ! D1    D(6,1,2,3)             -0.0003         -DE/DX =    0.0                 !
 ! D2    D(6,1,2,12)           179.9995         -DE/DX =    0.0                 !
 ! D3    D(7,1,2,3)           -179.9994         -DE/DX =    0.0                 !
 ! D4    D(7,1,2,12)             0.0004         -DE/DX =    0.0                 !
 ! D5    D(2,1,6,5)              0.0008         -DE/DX =    0.0                 !
 ! D6    D(2,1,6,8)            179.9999         -DE/DX =    0.0                 !
 ! D7    D(7,1,6,5)            179.9999         -DE/DX =    0.0                 !
 ! D8    D(7,1,6,8)             -0.0011         -DE/DX =    0.0                 !
 ! D9    D(1,2,3,4)             -0.0004         -DE/DX =    0.0                 !
 ! D10   D(1,2,3,11)          -179.9996         -DE/DX =    0.0                 !
 ! D11   D(12,2,3,4)           179.9997         -DE/DX =    0.0                 !
 ! D12   D(12,2,3,11)            0.0006         -DE/DX =    0.0                 !
 ! D13   D(2,3,4,5)              0.0007         -DE/DX =    0.0                 !
 ! D14   D(2,3,4,10)           179.9998         -DE/DX =    0.0                 !
 ! D15   D(11,3,4,5)           179.9999         -DE/DX =    0.0                 !
 ! D16   D(11,3,4,10)           -0.001          -DE/DX =    0.0                 !
 ! D17   D(3,4,5,6)             -0.0003         -DE/DX =    0.0                 !
 ! D18   D(3,4,5,9)            179.9995         -DE/DX =    0.0                 !
 ! D19   D(10,4,5,6)          -179.9994         -DE/DX =    0.0                 !
 ! D20   D(10,4,5,9)             0.0004         -DE/DX =    0.0                 !
 ! D21   D(4,5,6,1)             -0.0005         -DE/DX =    0.0                 !
 ! D22   D(4,5,6,8)            180.0004         -DE/DX =    0.0                 !
 ! D23   D(9,5,6,1)            179.9997         -DE/DX =    0.0                 !
 ! D24   D(9,5,6,8)              0.0006         -DE/DX =    0.0                 !
 --------------------------------------------------------------------------------
 GradGradGradGradGradGradGradGradGradGradGradGradGradGradGradGradGradGrad


 ----------------------------------------------------------------------

 Electric dipole moment (input orientation):
 (Debye = 10**-18 statcoulomb cm , SI units = C m)
                  (au)            (Debye)         (10**-30 SI)
   Tot        0.000000D+00      0.000000D+00      0.000000D+00
   x          0.000000D+00      0.000000D+00      0.000000D+00
   y          0.000000D+00      0.000000D+00      0.000000D+00
   z          0.000000D+00      0.000000D+00      0.000000D+00

 Dipole polarizability, Alpha (input orientation).
 (esu units = cm**3 , SI units = C**2 m**2 J**-1)
 Alpha(0;0):
               (au)            (10**-24 esu)      (10**-40 SI)
   iso        0.549912D+02      0.814886D+01      0.906683D+01
   aniso      0.503505D+02      0.746117D+01      0.830167D+01
   xx         0.717736D+02      0.106358D+02      0.118339D+02
   yx         0.925331D-02      0.137120D-02      0.152566D-02
   yy         0.716723D+02      0.106207D+02      0.118172D+02
   zx         0.199118D+00      0.295063D-01      0.328302D-01
   zy        -0.227201D+01     -0.336677D+00     -0.374603D+00
   zz         0.215278D+02      0.319008D+01      0.354945D+01

 ----------------------------------------------------------------------

 Dipole orientation:
     6         -3.07947526         -3.37782649         -1.37603059
     6         -0.48002644         -3.24575126         -0.94491010
     6          0.61223987         -0.97860784         -0.15279913
     6         -0.89494238          1.15646550          0.20817499
     6         -3.49439524          1.02438608         -0.22293457
     6         -4.58666226         -1.24276198         -1.01502778
     1         -3.92940601         -5.14195753         -1.99237692
     1         -6.60936404         -1.34551503         -1.35049312
     1         -4.66716649          2.68574691          0.05796705
     1         -0.04501481          2.92059117          0.82454390
     1          2.63494396         -0.87584536          0.18265138
     1          0.69274875         -4.90711046         -1.22580296

 Electric dipole moment (dipole orientation):
 (Debye = 10**-18 statcoulomb cm , SI units = C m)
                  (au)            (Debye)         (10**-30 SI)
   Tot        0.000000D+00      0.000000D+00      0.000000D+00
   x          0.000000D+00      0.000000D+00      0.000000D+00
   y          0.000000D+00      0.000000D+00      0.000000D+00
   z          0.000000D+00      0.000000D+00      0.000000D+00

 Dipole polarizability, Alpha (dipole orientation).
 (esu units = cm**3 , SI units = C**2 m**2 J**-1)
 Alpha(0;0):
               (au)            (10**-24 esu)      (10**-40 SI)
   iso        0.549912D+02      0.814886D+01      0.906683D+01
   aniso      0.503505D+02      0.746117D+01      0.830167D+01
   xx         0.707189D+02      0.104795D+02      0.116600D+02
   yx        -0.192095D+01     -0.284656D+00     -0.316723D+00
   yy         0.682800D+02      0.101181D+02      0.112579D+02
   zx         0.695289D+01      0.103031D+01      0.114638D+01
   zy         0.126520D+02      0.187483D+01      0.208603D+01
   zz         0.259748D+02      0.384907D+01      0.428266D+01

 ----------------------------------------------------------------------
 1\1\GINC-DESKTOP-PRN5QE3\Freq\RB3LYP\6-31G(d,p)\C6H6\SHOHEI\22-Sep-202
 3\0\\#N Geom=AllCheck Guess=TCheck SCRF=Check GenChk RB3LYP/6-31G(d,p)
  Freq\\Benzeno\\0,1\C,-1.6771080464,1.88606636,-0.1043423602\C,-0.2849
 397395,1.7817339433,-0.0941110161\C,0.320482274,0.5251213135,-0.034896
 6687\C,-0.4662652297,-0.6271588303,0.0140953254\C,-1.8584347422,-0.522
 8261284,0.0038575422\C,-2.4638556789,0.7337859438,-0.0553664442\H,-2.1
 482065196,2.8638705585,-0.1504284935\H,-3.547139812,0.8149604333,-0.06
 33253798\H,-2.4706186868,-1.4194505503,0.0419716698\H,0.0048334142,-1.
 6049640303,0.0601690992\H,1.4037663343,0.4439445169,-0.0269286445\H,0.
 3272469327,2.6783561701,-0.1322289297\\Version=EM64L-G16RevB.01\State=
 1-A\HF=-232.2582032\RMSD=6.135e-10\RMSF=9.032e-05\ZeroPoint=0.1006131\
 Thermal=0.1050016\Dipole=0.0000002,-0.0000005,-0.0000015\DipoleDeriv=-
 0.0301258,-0.0772025,0.0038024,-0.077153,0.0927979,-0.0094121,0.003805
 3,-0.00942,-0.1081609,-0.0045973,0.0920347,-0.0037502,0.0919661,0.0672
 504,-0.0075867,-0.0037496,-0.0075863,-0.1082768,0.1292388,-0.0147588,0
 .0016093,-0.0147304,-0.0663692,-0.0019681,0.0016176,-0.0019698,-0.1085
 015,-0.030126,-0.077203,0.0038013,-0.077154,0.0927986,-0.0094127,0.003
 7941,-0.0094056,-0.1081617,-0.0045972,0.0920348,-0.0037483,0.0919667,0
 .0672501,-0.0075875,-0.0037425,-0.007587,-0.1082768,0.1292388,-0.01475
 86,0.0016104,-0.0147311,-0.0663687,-0.0019674,0.0015992,-0.0019659,-0.
 1085018,0.0238375,0.0692415,-0.0034669,0.0692349,-0.0864354,0.009093,-
 0.0034688,0.0090974,0.1081769,-0.1192109,0.0132122,-0.0015007,0.013208
 2,0.0563171,0.0024163,-0.0014956,0.0024159,0.1084859,0.0008579,-0.0825
 268,0.0033043,-0.0825256,-0.0635612,0.0074577,0.0033035,0.0074569,0.10
 82768,0.0238374,0.0692415,-0.0034667,0.0692351,-0.0864358,0.0090936,-0
 .0034643,0.0090895,0.1081772,-0.1192108,0.0132122,-0.0014998,0.0132084
 ,0.0563171,0.0024165,-0.0015043,0.002417,0.1084858,0.0008576,-0.082527
 2,0.0033049,-0.0825254,-0.0635608,0.0074574,0.0033054,0.0074579,0.1082
 768\Polar=71.7736203,0.0092533,71.6723116,0.1991182,-2.2720062,21.5277
 548\Quadrupole=1.7490166,1.738364,-3.4873806,0.0009496,0.0207518,-0.23
 6774\PG=C01 [X(C6H6)]\NImag=0\\0.68498409,-0.02779658,0.72835762,0.003
 44839,-0.02706479,0.13347705,-0.33997980,0.04925668,-0.00333090,0.6942
 1238,-0.01765725,-0.12984480,0.00302720,0.03337080,0.71913993,-0.00030
 509,0.00329231,-0.06149835,0.00071681,-0.02640426,0.13345295,-0.018430
 46,0.03245200,-0.00157144,-0.16874219,0.11633388,-0.00568523,0.7426394
 7,0.08209295,0.02648404,-0.00051757,0.04942215,-0.30075424,0.01101960,
 -0.00523087,0.67090247,-0.00381606,-0.00071432,0.00785976,-0.00265984,
 0.01128477,-0.06188317,0.00265540,-0.02437750,0.13335653,-0.05678543,-
 0.02666455,0.00101311,0.06492882,-0.03401357,0.00176401,-0.19626455,-0
 .06532845,0.00242012,0.68498089,-0.02666455,-0.01417872,0.00016377,0.0
 1562244,-0.05670508,0.00298028,-0.13224147,-0.27335556,0.00906280,-0.0
 2779642,0.72835683,0.00101330,0.00016394,-0.00822125,-0.00048037,0.002
 78330,0.00770552,0.00544581,0.00932783,-0.06176158,0.00344640,-0.02706
 419,0.13347741,0.06492881,0.01562245,-0.00047987,-0.04795569,0.0317613
 5,-0.00159344,-0.03435444,-0.07290303,0.00312923,-0.33997675,0.0492564
 4,-0.00333188,0.69420858,-0.03401361,-0.05670515,0.00278352,0.03176142
 ,-0.02297527,0.00079287,-0.02326327,0.04236295,-0.00165383,-0.01765750
 ,-0.12984499,0.00302717,0.03337015,0.71914189,0.00176449,0.00297994,0.
 00770553,-0.00159378,0.00079311,-0.00826359,0.00088490,-0.00185048,0.0
 0791727,-0.00030646,0.00329245,-0.06149867,0.00071946,-0.02640503,0.13
 345322,-0.19626472,-0.13224192,0.00544391,-0.03435454,-0.02326331,0.00
 088450,-0.00173076,-0.00510854,0.00025671,-0.01843041,0.03245199,-0.00
 157155,-0.16874230,0.11633431,-0.00568634,0.74264018,-0.06532889,-0.27
 335615,0.00932560,-0.07290313,0.04236294,-0.00185027,-0.00510849,-0.06
 912503,0.00273425,0.08209291,0.02648406,-0.00051755,0.04942259,-0.3007
 5526,0.01102119,-0.00523027,0.67090388,0.00241844,0.00906028,-0.061761
 24,0.00312926,-0.00165345,0.00791724,0.00025661,0.00273409,-0.00833143
 ,-0.00381608,-0.00071428,0.00785976,-0.00266072,0.01128636,-0.06188321
 ,0.00265569,-0.02437657,0.13335624,-0.11221663,0.10832134,-0.00520071,
 -0.00824248,0.03031714,-0.00141380,-0.00577171,-0.00113203,0.00000004,
 -0.00095528,-0.00083653,0.00003563,-0.00165665,-0.00317147,0.00010854,
 0.01179084,-0.01734655,0.00082094,0.11502238,0.10832059,-0.28482247,0.
 01168182,-0.00137509,0.00143383,0.00004627,0.00011124,0.00178903,0.000
 24176,-0.00083691,0.00037903,-0.00003861,-0.00441315,-0.00231615,0.000
 40941,0.01434568,-0.01856675,0.00101304,-0.11699490,0.30143668,-0.0052
 0087,0.01168234,-0.03654021,0.00001945,0.00017173,0.00256940,-0.000056
 06,0.00023688,0.00711461,0.00003561,-0.00003860,-0.00039969,0.00016466
 ,0.00041429,0.00710713,-0.00061207,0.00088705,0.00253500,0.00564543,-0
 .01293965,0.02615811,-0.01353906,0.00442460,-0.00026388,0.00033520,-0.
 00363472,0.00013744,0.00077119,-0.00015969,0.00001187,0.00112057,0.002
 81040,-0.00015086,-0.00970612,-0.00194860,0.00003948,-0.33601153,0.020
 68136,-0.00212315,0.00090468,-0.00021926,0.00002916,0.35673687,-0.0272
 6765,0.00670872,-0.00029481,-0.00239166,-0.00430320,0.00050723,-0.0001
 5974,-0.00134392,0.00004199,0.00156664,-0.00508695,0.00055838,0.029743
 62,0.00289277,0.00010349,0.02068199,-0.06153104,0.00123672,0.00045987,
 0.00098852,-0.00022174,-0.02233556,0.06026289,0.00116877,-0.00016931,0
 .00258954,0.00008123,0.00050224,0.00710275,0.00001190,0.00004196,-0.00
 040323,-0.00009460,0.00056343,0.00709933,-0.00139380,-0.00002197,0.002
 57097,-0.00212263,0.00123671,-0.03605390,-0.00000151,-0.00022445,-0.00
 394583,0.00232136,-0.00165791,0.02563578,-0.00054977,0.00289842,-0.000
 16153,-0.00067707,0.00099694,-0.00004616,-0.00545208,0.00222036,-0.000
 15030,-0.01231242,-0.02824638,0.00121820,-0.14816115,-0.12909071,0.005
 39208,0.01155583,0.01279184,-0.00054278,0.00046812,0.00073861,-0.00003
 284,0.00087166,-0.00043901,0.00003900,0.15384580,0.00414076,-0.0034190
 3,0.00049324,0.00099737,0.00010397,-0.00001892,0.00097728,0.00147114,0
 .00025957,0.00344449,0.00548382,-0.00011781,-0.12909102,-0.24903543,0.
 00912132,-0.01889871,-0.01833290,0.00087056,-0.00097399,-0.00108730,0.
 00006014,0.00023991,0.00102198,-0.00022416,0.13942959,0.26278357,-0.00
 021765,0.00048831,0.00710263,-0.00004623,-0.00001889,-0.00040102,-0.00
 009403,0.00026445,0.00711334,-0.00021475,-0.00024346,0.00258695,0.0053
 9210,0.00912118,-0.03637973,0.00089020,0.00099633,0.00253682,0.0000445
 9,0.00006694,0.00032562,0.00000827,-0.00022683,-0.00394593,-0.00579567
 ,-0.01017406,0.02598434,-0.00095527,-0.00083654,0.00003563,-0.00165665
 ,-0.00317146,0.00010865,0.01179082,-0.01734653,0.00082079,-0.11221652,
 0.10832105,-0.00519928,-0.00824242,0.03031708,-0.00141363,-0.00577172,
 -0.00113204,0.00000011,0.00017648,0.00012573,0.00000019,-0.00059847,0.
 00158894,-0.00007554,0.00107872,-0.00035754,0.00003610,0.11502224,-0.0
 0083691,0.00037903,-0.00003862,-0.00441315,-0.00231614,0.00040942,0.01
 434568,-0.01856668,0.00101281,0.10832029,-0.28482208,0.01167928,-0.001
 37513,0.00143384,0.00004622,0.00011124,0.00178902,0.00024172,0.0001257
 3,-0.00002655,-0.00005744,-0.00012370,-0.00002244,0.00001536,0.0003211
 7,0.00081455,-0.00021440,-0.11699457,0.30143622,0.00003568,-0.00003862
 ,-0.00039969,0.00016482,0.00041438,0.00710713,-0.00061222,0.00088759,0
 .00253497,-0.00519906,0.01167880,-0.03654000,0.00001916,0.00017195,0.0
 0256936,-0.00005622,0.00023675,0.00711460,0.00000020,-0.00005745,-0.00
 130539,0.00000192,0.00002217,0.00032728,0.00000545,-0.00021711,-0.0039
 4601,0.00564393,-0.01293687,0.02615795,0.00112058,0.00281039,-0.000150
 89,-0.00970599,-0.00194864,0.00003940,-0.33601111,0.02068183,-0.002125
 10,-0.01353917,0.00442460,-0.00026399,0.00033519,-0.00363473,0.0001374
 4,0.00077119,-0.00015971,0.00001186,-0.00059847,-0.00012370,0.00000192
 ,-0.00008249,0.00002421,0.00000376,-0.00080251,0.00024105,-0.00001538,
 0.00090468,-0.00021926,0.00002919,0.35673644,0.00156662,-0.00508697,0.
 00055842,0.02974352,0.00289281,0.00010355,0.02068254,-0.06153113,0.001
 23700,-0.02726767,0.00670870,-0.00029493,-0.00239166,-0.00430318,0.000
 50731,-0.00015974,-0.00134392,0.00004198,0.00158894,-0.00002244,0.0000
 2214,0.00002421,0.00023196,-0.00006955,-0.00147165,0.00018070,0.000000
 85,0.00045986,0.00098851,-0.00022176,-0.02233596,0.06026296,-0.0000946
 7,0.00056323,0.00709931,-0.00139336,-0.00002217,0.00257090,-0.00212566
 ,0.00123700,-0.03605396,0.00116937,-0.00016924,0.00258960,0.00008124,0
 .00050245,0.00710275,0.00001185,0.00004201,-0.00040323,-0.00007550,0.0
 0001537,0.00032729,0.00000376,-0.00006954,-0.00130503,0.00006208,0.000
 00763,0.00032826,-0.00000155,-0.00022443,-0.00394583,0.00232348,-0.001
 65817,0.02563586,-0.01231235,-0.02824631,0.00121819,-0.14816199,-0.129
 09116,0.00539290,0.01155582,0.01279185,-0.00054287,-0.00054976,0.00289
 842,-0.00016142,-0.00067706,0.00099693,-0.00004618,-0.00545206,0.00222
 037,-0.00015018,0.00107873,0.00032116,0.00000541,-0.00080250,-0.001471
 64,0.00006204,0.00013487,-0.00014919,0.00001246,0.00046811,0.00073861,
 -0.00003285,0.00087165,-0.00043901,0.00003897,0.15384655,0.00344451,0.
 00548388,-0.00011779,-0.12909136,-0.24903477,0.00912191,-0.01889878,-0
 .01833306,0.00087071,0.00414076,-0.00341906,0.00049316,0.00099738,0.00
 010396,-0.00001891,0.00097730,0.00147114,0.00025954,-0.00035755,0.0008
 1455,-0.00021712,0.00024105,0.00018071,0.00000764,-0.00014918,0.000014
 92,-0.00006041,-0.00097399,-0.00108730,0.00006017,0.00023992,0.0010219
 9,-0.00022414,0.13942995,0.26278304,-0.00021475,-0.00024331,0.00258691
 ,0.00539290,0.00912204,-0.03637978,0.00089004,0.00099615,0.00253687,-0
 .00021766,0.00048825,0.00710262,-0.00004615,-0.00001894,-0.00040102,-0
 .00009403,0.00026451,0.00711335,0.00003614,-0.00021445,-0.00394603,-0.
 00001538,0.00000084,0.00032827,0.00001247,-0.00006041,-0.00130526,0.00
 004460,0.00006694,0.00032562,0.00000830,-0.00022684,-0.00394592,-0.005
 79647,-0.01017477,0.02598436\\0.00009704,-0.00020062,0.00001092,-0.000
 11615,-0.00018243,0.00000797,-0.00022358,0.00001753,-0.00000314,-0.000
 09644,0.00020039,-0.00000809,0.00011459,0.00018314,-0.00000753,0.00022
 400,-0.00001702,0.00000007,-0.00000072,0.00000013,-0.00000044,0.000000
 34,-0.00000095,0.00000046,0.00000005,0.00000043,-0.00000012,0.00000088
 ,-0.00000046,-0.00000040,-0.00000024,0.00000060,0.00000038,0.00000022,
 -0.00000075,-0.00000006\\\@


 IF IT'S NOT TRUE, IT'S WELL INVENTED -- DANTE
 Job cpu time:       0 days  0 hours  3 minutes 33.8 seconds.
 Elapsed time:       0 days  0 hours  3 minutes 34.0 seconds.
 File lengths (MBytes):  RWF=     23 Int=      0 D2E=      0 Chk=      2 Scr=      1
 Normal termination of Gaussian 16 at Fri Sep 22 15:14:19 2023.
