Benzeno                                                                 
Freq      RB3LYP                                                      6-31G(d,p)          
Number of atoms                            I               12
Info1-9                                    I   N=           9
          20          19        1002           0           0         100
           6          18        -502
Full Title                                 C   N=           1
Benzeno     
Route                                      C   N=           3
# B3LYP/6-31G(d,p) OPT FREQ         
Charge                                     I                0
Multiplicity                               I                1
Number of electrons                        I               42
Number of alpha electrons                  I               21
Number of beta electrons                   I               21
Number of basis functions                  I              120
Number of independent functions            I              120
Number of point charges in /Mol/           I                0
Number of translation vectors              I                0
Atomic numbers                             I   N=          12
           6           6           6           6           6           6
           1           1           1           1           1           1
Nuclear charges                            R   N=          12
  6.00000000E+00  6.00000000E+00  6.00000000E+00  6.00000000E+00  6.00000000E+00
  6.00000000E+00  1.00000000E+00  1.00000000E+00  1.00000000E+00  1.00000000E+00
  1.00000000E+00  1.00000000E+00
Current cartesian coordinates              R   N=          36
 -4.82657790E-01  2.59373554E+00  7.61613880E-06  2.00491574E+00  1.71486079E+00
  1.14884766E-06  2.48757498E+00 -8.78874901E-01 -7.54944745E-06  4.82658365E-01
 -2.59373588E+00  7.20703949E-06 -2.00491713E+00 -1.71485948E+00  1.55214399E-06
 -2.48757453E+00  8.78875480E-01 -8.00146212E-06 -8.58233773E-01  4.61199372E+00
 -4.18872995E-06 -4.42322803E+00  1.56273455E+00  6.68291431E-07 -3.56498871E+00
 -3.04924871E+00 -2.20809800E-06  8.58234351E-01 -4.61199493E+00 -4.40683154E-06
  4.42322707E+00 -1.56273890E+00  7.41580758E-07  3.56499127E+00  3.04924499E+00
 -2.44577494E-06
Number of symbols in /Mol/                 I                0
Force Field                                I                0
Atom Types                                 C   N=          12
                                                            
                                                            
                        
Int Atom Types                             I   N=          12
           0           0           0           0           0           0
           0           0           0           0           0           0
MM charges                                 R   N=          12
  0.00000000E+00  0.00000000E+00  0.00000000E+00  0.00000000E+00  0.00000000E+00
  0.00000000E+00  0.00000000E+00  0.00000000E+00  0.00000000E+00  0.00000000E+00
  0.00000000E+00  0.00000000E+00
Integer atomic weights                     I   N=          12
          12          12          12          12          12          12
           1           1           1           1           1           1
Real atomic weights                        R   N=          12
  1.20000000E+01  1.20000000E+01  1.20000000E+01  1.20000000E+01  1.20000000E+01
  1.20000000E+01  1.00782504E+00  1.00782504E+00  1.00782504E+00  1.00782504E+00
  1.00782504E+00  1.00782504E+00
Atom fragment info                         I   N=          12
           0           0           0           0           0           0
           0           0           0           0           0           0
Atom residue num                           I   N=          12
           0           0           0           0           0           0
           0           0           0           0           0           0
Nuclear spins                              I   N=          12
           0           0           0           0           0           0
           1           1           1           1           1           1
Nuclear ZEff                               R   N=          12
 -3.60000000E+00 -3.60000000E+00 -3.60000000E+00 -3.60000000E+00 -3.60000000E+00
 -3.60000000E+00 -1.00000000E+00 -1.00000000E+00 -1.00000000E+00 -1.00000000E+00
 -1.00000000E+00 -1.00000000E+00
Nuclear ZNuc                               R   N=          12
  6.00000000E+00  6.00000000E+00  6.00000000E+00  6.00000000E+00  6.00000000E+00
  6.00000000E+00  1.00000000E+00  1.00000000E+00  1.00000000E+00  1.00000000E+00
  1.00000000E+00  1.00000000E+00
Nuclear QMom                               R   N=          12
  0.00000000E+00  0.00000000E+00  0.00000000E+00  0.00000000E+00  0.00000000E+00
  0.00000000E+00  0.00000000E+00  0.00000000E+00  0.00000000E+00  0.00000000E+00
  0.00000000E+00  0.00000000E+00
Nuclear GFac                               R   N=          12
  0.00000000E+00  0.00000000E+00  0.00000000E+00  0.00000000E+00  0.00000000E+00
  0.00000000E+00  2.79284600E+00  2.79284600E+00  2.79284600E+00  2.79284600E+00
  2.79284600E+00  2.79284600E+00
MicOpt                                     I   N=          12
          -1          -1          -1          -1          -1          -1
          -1          -1          -1          -1          -1          -1
Number of residues                         I                0
Number of secondary structures             I                0
Redundant internal dimensions              I   N=           4
          54          12          18          24
Redundant internal coordinate indices      I   N=         216
           1           2           0           0           1           6
           0           0           1           7           0           0
           2           3           0           0           2          12
           0           0           3           4           0           0
           3          11           0           0           4           5
           0           0           4          10           0           0
           5           6           0           0           5           9
           0           0           6           8           0           0
           2           1           6           0           2           1
           7           0           6           1           7           0
           1           2           3           0           1           2
          12           0           3           2          12           0
           2           3           4           0           2           3
          11           0           4           3          11           0
           3           4           5           0           3           4
          10           0           5           4          10           0
           4           5           6           0           4           5
           9           0           6           5           9           0
           1           6           5           0           1           6
           8           0           5           6           8           0
           6           1           2           3           6           1
           2          12           7           1           2           3
           7           1           2          12           2           1
           6           5           2           1           6           8
           7           1           6           5           7           1
           6           8           1           2           3           4
           1           2           3          11          12           2
           3           4          12           2           3          11
           2           3           4           5           2           3
           4          10          11           3           4           5
          11           3           4          10           3           4
           5           6           3           4           5           9
          10           4           5           6          10           4
           5           9           4           5           6           1
           4           5           6           8           9           5
           6           1           9           5           6           8
Redundant internal coordinates             R   N=          54
  2.63826513E+00  2.63826385E+00  2.05290609E+00  2.63826170E+00  2.05290449E+00
  2.63826435E+00  2.05290501E+00  2.63826753E+00  2.05290694E+00  2.63826064E+00
  2.05290476E+00  2.05290470E+00  2.09439690E+00  2.09439803E+00  2.09439037E+00
  2.09439547E+00  2.09439358E+00  2.09439626E+00  2.09439323E+00  2.09438924E+00
  2.09440284E+00  2.09439626E+00  2.09439074E+00  2.09439830E+00  2.09439518E+00
  2.09439012E+00  2.09440000E+00  2.09439357E+00  2.09440563E+00  2.09438611E+00
 -5.85899939E-06  3.14158380E+00 -3.14158221E+00  7.44864319E-06  1.38473646E-05
  3.14159061E+00  3.14159020E+00 -1.83518735E-05 -7.43497764E-06 -3.14158516E+00
  3.14158822E+00  1.04923329E-05  1.27405625E-05  3.14158993E+00  3.14159047E+00
 -1.76544994E-05 -4.75216230E-06  3.14158408E+00 -3.14158194E+00  6.89242737E-06
 -8.54178441E-06 -3.14158530E+00  3.14158793E+00  1.11728605E-05
ZRed-IntVec                                I   N=          54
           0           0           0           0           0           0
           0           0           0           0           0           0
           0           0           0           0           0           0
           0           0           0           0           0           0
           0           0           0           0           0           0
           0           0           0           0           0           0
           0           0           0           0           0           0
           0           0           0           0           0           0
           0           0           0           0           0           0
ZRed-FPVec                                 R   N=          54
  0.00000000E+00  0.00000000E+00  0.00000000E+00  0.00000000E+00  0.00000000E+00
  0.00000000E+00  0.00000000E+00  0.00000000E+00  0.00000000E+00  0.00000000E+00
  0.00000000E+00  0.00000000E+00  0.00000000E+00  0.00000000E+00  0.00000000E+00
  0.00000000E+00  0.00000000E+00  0.00000000E+00  0.00000000E+00  0.00000000E+00
  0.00000000E+00  0.00000000E+00  0.00000000E+00  0.00000000E+00  0.00000000E+00
  0.00000000E+00  0.00000000E+00  0.00000000E+00  0.00000000E+00  0.00000000E+00
  0.00000000E+00  0.00000000E+00  0.00000000E+00  0.00000000E+00  0.00000000E+00
  0.00000000E+00  0.00000000E+00  0.00000000E+00  0.00000000E+00  0.00000000E+00
  0.00000000E+00  0.00000000E+00  0.00000000E+00  0.00000000E+00  0.00000000E+00
  0.00000000E+00  0.00000000E+00  0.00000000E+00  0.00000000E+00  0.00000000E+00
  0.00000000E+00  0.00000000E+00  0.00000000E+00  0.00000000E+00
ZRed-Constraint1                           R   N=          54
  2.63826513E+00  2.63826385E+00  2.05290609E+00  2.63826170E+00  2.05290449E+00
  2.63826435E+00  2.05290501E+00  2.63826753E+00  2.05290694E+00  2.63826064E+00
  2.05290476E+00  2.05290470E+00  2.09439690E+00  2.09439803E+00  2.09439037E+00
  2.09439547E+00  2.09439358E+00  2.09439626E+00  2.09439323E+00  2.09438924E+00
  2.09440284E+00  2.09439626E+00  2.09439074E+00  2.09439830E+00  2.09439518E+00
  2.09439012E+00  2.09440000E+00  2.09439357E+00  2.09440563E+00  2.09438611E+00
 -5.85899939E-06  3.14158380E+00 -3.14158221E+00  7.44861338E-06  1.38473646E-05
  3.14159061E+00  3.14159020E+00 -1.83518675E-05 -7.43497764E-06 -3.14158516E+00
  3.14158822E+00  1.04923223E-05  1.27405625E-05  3.14158993E+00  3.14159046E+00
 -1.76544931E-05 -4.75216230E-06  3.14158408E+00 -3.14158194E+00  6.89245959E-06
 -8.54179740E-06 -3.14158530E+00  3.14158793E+00  1.11728605E-05
ZRed-Constraint2                           R   N=          54
  2.64382029E+00  2.64380903E+00  2.04532977E+00  2.64380851E+00  2.04532091E+00
  2.64379050E+00  2.04532369E+00  2.64380771E+00  2.04532068E+00  2.64380645E+00
  2.04531822E+00  2.04532698E+00  2.09439377E+00  2.09439655E+00  2.09439498E+00
  2.09438794E+00  2.09442122E+00  2.09437615E+00  2.09439994E+00  2.09439568E+00
  2.09438969E+00  2.09440148E+00  2.09438941E+00  2.09439442E+00  2.09439024E+00
  2.09439608E+00  2.09439899E+00  2.09439725E+00  2.09441489E+00  2.09437317E+00
  2.55721597E-05 -3.14156026E+00 -3.14158100E+00  1.84725303E-05 -6.25956245E-05
  3.14153593E+00  3.14154398E+00 -4.28092389E-05  3.59875321E-05 -3.14156233E+00
 -3.14156348E+00  2.35097023E-05 -6.05240466E-05  3.14154689E+00  3.14153779E+00
 -4.01014695E-05  2.35003973E-05 -3.14156333E+00 -3.14158392E+00  1.45592123E-05
  3.80594881E-05 -3.14156046E+00 -3.14156042E+00  2.63694057E-05
SymInf integers                            I   N=          26
           1           1           1           1           1           0
           0           0           0           0           0           0
           0           0           0           0           0           0
           0           0           0           0           0           0
           0           0
RotTr to input orientation                 R   N=          12
  9.65199820E-01  2.61391283E-01 -7.99407484E-03 -2.61483527E-01  9.64175434E-01
 -4.46329219E-02 -3.95896616E-03  4.51700070E-02  9.98971470E-01 -2.02519453E+00
  1.18949498E+00 -8.52784991E-02
Number of contracted shells                I               42
Number of primitive shells                 I               96
Pure/Cartesian d shells                    I                1
Pure/Cartesian f shells                    I                0
Highest angular momentum                   I                2
Largest degree of contraction              I                6
Shell types                                I   N=          42
           0          -1          -1           2           0          -1
          -1           2           0          -1          -1           2
           0          -1          -1           2           0          -1
          -1           2           0          -1          -1           2
           0           0           1           0           0           1
           0           0           1           0           0           1
           0           0           1           0           0           1
Number of primitives per shell             I   N=          42
           6           3           1           1           6           3
           1           1           6           3           1           1
           6           3           1           1           6           3
           1           1           6           3           1           1
           3           1           1           3           1           1
           3           1           1           3           1           1
           3           1           1           3           1           1
Shell to atom map                          I   N=          42
           1           1           1           1           2           2
           2           2           3           3           3           3
           4           4           4           4           5           5
           5           5           6           6           6           6
           7           7           7           8           8           8
           9           9           9          10          10          10
          11          11          11          12          12          12
Primitive exponents                        R   N=          96
  3.04752488E+03  4.57369518E+02  1.03948685E+02  2.92101553E+01  9.28666296E+00
  3.16392696E+00  7.86827235E+00  1.88128854E+00  5.44249258E-01  1.68714478E-01
  8.00000000E-01  3.04752488E+03  4.57369518E+02  1.03948685E+02  2.92101553E+01
  9.28666296E+00  3.16392696E+00  7.86827235E+00  1.88128854E+00  5.44249258E-01
  1.68714478E-01  8.00000000E-01  3.04752488E+03  4.57369518E+02  1.03948685E+02
  2.92101553E+01  9.28666296E+00  3.16392696E+00  7.86827235E+00  1.88128854E+00
  5.44249258E-01  1.68714478E-01  8.00000000E-01  3.04752488E+03  4.57369518E+02
  1.03948685E+02  2.92101553E+01  9.28666296E+00  3.16392696E+00  7.86827235E+00
  1.88128854E+00  5.44249258E-01  1.68714478E-01  8.00000000E-01  3.04752488E+03
  4.57369518E+02  1.03948685E+02  2.92101553E+01  9.28666296E+00  3.16392696E+00
  7.86827235E+00  1.88128854E+00  5.44249258E-01  1.68714478E-01  8.00000000E-01
  3.04752488E+03  4.57369518E+02  1.03948685E+02  2.92101553E+01  9.28666296E+00
  3.16392696E+00  7.86827235E+00  1.88128854E+00  5.44249258E-01  1.68714478E-01
  8.00000000E-01  1.87311370E+01  2.82539436E+00  6.40121692E-01  1.61277759E-01
  1.10000000E+00  1.87311370E+01  2.82539436E+00  6.40121692E-01  1.61277759E-01
  1.10000000E+00  1.87311370E+01  2.82539436E+00  6.40121692E-01  1.61277759E-01
  1.10000000E+00  1.87311370E+01  2.82539436E+00  6.40121692E-01  1.61277759E-01
  1.10000000E+00  1.87311370E+01  2.82539436E+00  6.40121692E-01  1.61277759E-01
  1.10000000E+00  1.87311370E+01  2.82539436E+00  6.40121692E-01  1.61277759E-01
  1.10000000E+00
Contraction coefficients                   R   N=          96
  1.83473713E-03  1.40373228E-02  6.88426223E-02  2.32184443E-01  4.67941348E-01
  3.62311985E-01 -1.19332420E-01 -1.60854152E-01  1.14345644E+00  1.00000000E+00
  1.00000000E+00  1.83473713E-03  1.40373228E-02  6.88426223E-02  2.32184443E-01
  4.67941348E-01  3.62311985E-01 -1.19332420E-01 -1.60854152E-01  1.14345644E+00
  1.00000000E+00  1.00000000E+00  1.83473713E-03  1.40373228E-02  6.88426223E-02
  2.32184443E-01  4.67941348E-01  3.62311985E-01 -1.19332420E-01 -1.60854152E-01
  1.14345644E+00  1.00000000E+00  1.00000000E+00  1.83473713E-03  1.40373228E-02
  6.88426223E-02  2.32184443E-01  4.67941348E-01  3.62311985E-01 -1.19332420E-01
 -1.60854152E-01  1.14345644E+00  1.00000000E+00  1.00000000E+00  1.83473713E-03
  1.40373228E-02  6.88426223E-02  2.32184443E-01  4.67941348E-01  3.62311985E-01
 -1.19332420E-01 -1.60854152E-01  1.14345644E+00  1.00000000E+00  1.00000000E+00
  1.83473713E-03  1.40373228E-02  6.88426223E-02  2.32184443E-01  4.67941348E-01
  3.62311985E-01 -1.19332420E-01 -1.60854152E-01  1.14345644E+00  1.00000000E+00
  1.00000000E+00  3.34946043E-02  2.34726953E-01  8.13757326E-01  1.00000000E+00
  1.00000000E+00  3.34946043E-02  2.34726953E-01  8.13757326E-01  1.00000000E+00
  1.00000000E+00  3.34946043E-02  2.34726953E-01  8.13757326E-01  1.00000000E+00
  1.00000000E+00  3.34946043E-02  2.34726953E-01  8.13757326E-01  1.00000000E+00
  1.00000000E+00  3.34946043E-02  2.34726953E-01  8.13757326E-01  1.00000000E+00
  1.00000000E+00  3.34946043E-02  2.34726953E-01  8.13757326E-01  1.00000000E+00
  1.00000000E+00
P(S=P) Contraction coefficients            R   N=          96
  0.00000000E+00  0.00000000E+00  0.00000000E+00  0.00000000E+00  0.00000000E+00
  0.00000000E+00  6.89990666E-02  3.16423961E-01  7.44308291E-01  1.00000000E+00
  0.00000000E+00  0.00000000E+00  0.00000000E+00  0.00000000E+00  0.00000000E+00
  0.00000000E+00  0.00000000E+00  6.89990666E-02  3.16423961E-01  7.44308291E-01
  1.00000000E+00  0.00000000E+00  0.00000000E+00  0.00000000E+00  0.00000000E+00
  0.00000000E+00  0.00000000E+00  0.00000000E+00  6.89990666E-02  3.16423961E-01
  7.44308291E-01  1.00000000E+00  0.00000000E+00  0.00000000E+00  0.00000000E+00
  0.00000000E+00  0.00000000E+00  0.00000000E+00  0.00000000E+00  6.89990666E-02
  3.16423961E-01  7.44308291E-01  1.00000000E+00  0.00000000E+00  0.00000000E+00
  0.00000000E+00  0.00000000E+00  0.00000000E+00  0.00000000E+00  0.00000000E+00
  6.89990666E-02  3.16423961E-01  7.44308291E-01  1.00000000E+00  0.00000000E+00
  0.00000000E+00  0.00000000E+00  0.00000000E+00  0.00000000E+00  0.00000000E+00
  0.00000000E+00  6.89990666E-02  3.16423961E-01  7.44308291E-01  1.00000000E+00
  0.00000000E+00  0.00000000E+00  0.00000000E+00  0.00000000E+00  0.00000000E+00
  0.00000000E+00  0.00000000E+00  0.00000000E+00  0.00000000E+00  0.00000000E+00
  0.00000000E+00  0.00000000E+00  0.00000000E+00  0.00000000E+00  0.00000000E+00
  0.00000000E+00  0.00000000E+00  0.00000000E+00  0.00000000E+00  0.00000000E+00
  0.00000000E+00  0.00000000E+00  0.00000000E+00  0.00000000E+00  0.00000000E+00
  0.00000000E+00  0.00000000E+00  0.00000000E+00  0.00000000E+00  0.00000000E+00
  0.00000000E+00
Coordinates of each shell                  R   N=         126
 -4.82657790E-01  2.59373554E+00  7.61613880E-06 -4.82657790E-01  2.59373554E+00
  7.61613880E-06 -4.82657790E-01  2.59373554E+00  7.61613880E-06 -4.82657790E-01
  2.59373554E+00  7.61613880E-06  2.00491574E+00  1.71486079E+00  1.14884766E-06
  2.00491574E+00  1.71486079E+00  1.14884766E-06  2.00491574E+00  1.71486079E+00
  1.14884766E-06  2.00491574E+00  1.71486079E+00  1.14884766E-06  2.48757498E+00
 -8.78874901E-01 -7.54944745E-06  2.48757498E+00 -8.78874901E-01 -7.54944745E-06
  2.48757498E+00 -8.78874901E-01 -7.54944745E-06  2.48757498E+00 -8.78874901E-01
 -7.54944745E-06  4.82658365E-01 -2.59373588E+00  7.20703949E-06  4.82658365E-01
 -2.59373588E+00  7.20703949E-06  4.82658365E-01 -2.59373588E+00  7.20703949E-06
  4.82658365E-01 -2.59373588E+00  7.20703949E-06 -2.00491713E+00 -1.71485948E+00
  1.55214399E-06 -2.00491713E+00 -1.71485948E+00  1.55214399E-06 -2.00491713E+00
 -1.71485948E+00  1.55214399E-06 -2.00491713E+00 -1.71485948E+00  1.55214399E-06
 -2.48757453E+00  8.78875480E-01 -8.00146212E-06 -2.48757453E+00  8.78875480E-01
 -8.00146212E-06 -2.48757453E+00  8.78875480E-01 -8.00146212E-06 -2.48757453E+00
  8.78875480E-01 -8.00146212E-06 -8.58233773E-01  4.61199372E+00 -4.18872995E-06
 -8.58233773E-01  4.61199372E+00 -4.18872995E-06 -8.58233773E-01  4.61199372E+00
 -4.18872995E-06 -4.42322803E+00  1.56273455E+00  6.68291431E-07 -4.42322803E+00
  1.56273455E+00  6.68291431E-07 -4.42322803E+00  1.56273455E+00  6.68291431E-07
 -3.56498871E+00 -3.04924871E+00 -2.20809800E-06 -3.56498871E+00 -3.04924871E+00
 -2.20809800E-06 -3.56498871E+00 -3.04924871E+00 -2.20809800E-06  8.58234351E-01
 -4.61199493E+00 -4.40683154E-06  8.58234351E-01 -4.61199493E+00 -4.40683154E-06
  8.58234351E-01 -4.61199493E+00 -4.40683154E-06  4.42322707E+00 -1.56273890E+00
  7.41580758E-07  4.42322707E+00 -1.56273890E+00  7.41580758E-07  4.42322707E+00
 -1.56273890E+00  7.41580758E-07  3.56499127E+00  3.04924499E+00 -2.44577494E-06
  3.56499127E+00  3.04924499E+00 -2.44577494E-06  3.56499127E+00  3.04924499E+00
 -2.44577494E-06
Num ILSW                                   I              100
ILSW                                       I   N=         100
           0           1           0           0           2           0
           0           0           0           0         402          -1
           5           0           0           0           2           0
           0           0           1           0           1           0
           1           0           0           0           0           0
           0           0      100000           0          -1           0
           0           0           0           0           0           0
           0           0           0           1           0           0
           0 -2000000000           1           0           0           0
           0           0           4          52           0           0
           0           0           5           0           0           0
           0           0           0           0           0           1
           0           0           0           0           0           0
           0           0           0           0           0           0
           0           0           0           0           0           0
           0           0           0           0           0           0
           0           0           0           0
Num RLSW                                   I               52
RLSW                                       R   N=          52
  8.00000000E-01  7.20000000E-01  1.00000000E+00  8.10000000E-01  2.00000000E-01
  0.00000000E+00  0.00000000E+00  1.00000000E+00  0.00000000E+00  0.00000000E+00
  0.00000000E+00  0.00000000E+00  1.00000000E+00  0.00000000E+00  0.00000000E+00
  0.00000000E+00  0.00000000E+00  1.00000000E+00  0.00000000E+00  0.00000000E+00
  0.00000000E+00  0.00000000E+00  1.00000000E+00  0.00000000E+00  0.00000000E+00
  0.00000000E+00  0.00000000E+00  1.00000000E+00  0.00000000E+00  0.00000000E+00
  0.00000000E+00  0.00000000E+00  1.00000000E+00  0.00000000E+00  0.00000000E+00
  0.00000000E+00  0.00000000E+00  0.00000000E+00  1.00000000E+00  1.00000000E+00
  0.00000000E+00  1.00000000E+00  0.00000000E+00  0.00000000E+00  0.00000000E+00
  0.00000000E+00  0.00000000E+00  0.00000000E+00  0.00000000E+00  0.00000000E+00
  0.00000000E+00  0.00000000E+00
MxBond                                     I                3
NBond                                      I   N=          12
           3           3           3           3           3           3
           1           1           1           1           1           1
IBond                                      I   N=          36
           2           6           7           1           3          12
           2           4          11           3           5          10
           4           6           9           1           5           8
           1           0           0           6           0           0
           5           0           0           4           0           0
           3           0           0           2           0           0
RBond                                      R   N=          36
  1.50000000E+00  1.50000000E+00  1.00000000E+00  1.50000000E+00  1.50000000E+00
  1.00000000E+00  1.50000000E+00  1.50000000E+00  1.00000000E+00  1.50000000E+00
  1.50000000E+00  1.00000000E+00  1.50000000E+00  1.50000000E+00  1.00000000E+00
  1.50000000E+00  1.50000000E+00  1.00000000E+00  1.00000000E+00  0.00000000E+00
  0.00000000E+00  1.00000000E+00  0.00000000E+00  0.00000000E+00  1.00000000E+00
  0.00000000E+00  0.00000000E+00  1.00000000E+00  0.00000000E+00  0.00000000E+00
  1.00000000E+00  0.00000000E+00  0.00000000E+00  1.00000000E+00  0.00000000E+00
  0.00000000E+00
Virial Ratio                               R      2.010057309943162E+00
SCF Energy                                 R     -2.322582031987536E+02
Total Energy                               R     -2.322582031987536E+02
RMS Force                                  R      9.031546841098043E-05
RMS Density                                R      6.135015495186142E-10
NImag                                      I                0
Job Status                                 I                1
Nuclear derivative order                   I                2
External E-field                           R   N=          35
  0.00000000E+00  0.00000000E+00  0.00000000E+00  0.00000000E+00  0.00000000E+00
  0.00000000E+00  0.00000000E+00  0.00000000E+00  0.00000000E+00  0.00000000E+00
  0.00000000E+00  0.00000000E+00  0.00000000E+00  0.00000000E+00  0.00000000E+00
  0.00000000E+00  0.00000000E+00  0.00000000E+00  0.00000000E+00  0.00000000E+00
  0.00000000E+00  0.00000000E+00  0.00000000E+00  0.00000000E+00  0.00000000E+00
  0.00000000E+00  0.00000000E+00  0.00000000E+00  0.00000000E+00  0.00000000E+00
  0.00000000E+00  0.00000000E+00  0.00000000E+00  0.00000000E+00  0.00000000E+00
IOpCl                                      I                0
IROHF                                      I                0
Alpha Orbital Energies                     R   N=         120
 -1.01879444E+01 -1.01876789E+01 -1.01876787E+01 -1.01871251E+01 -1.01871250E+01
 -1.01868586E+01 -8.46821414E-01 -7.40055257E-01 -7.40054310E-01 -5.97376957E-01
 -5.97376363E-01 -5.17917099E-01 -4.58118228E-01 -4.38577206E-01 -4.16540645E-01
 -4.16539531E-01 -3.60016658E-01 -3.39589938E-01 -3.39589552E-01 -2.46931253E-01
 -2.46930194E-01  2.68536534E-03  2.68595019E-03  9.10657824E-02  1.45081540E-01
  1.45082097E-01  1.61942159E-01  1.81836745E-01  1.81837719E-01  1.90673857E-01
  3.00735005E-01  3.00735519E-01  3.18262665E-01  3.18263746E-01  4.67224801E-01
  5.26989180E-01  5.48394954E-01  5.50451700E-01  5.61229210E-01  5.91865130E-01
  6.01271189E-01  6.01272518E-01  6.01510627E-01  6.01512485E-01  6.24657471E-01
  6.24659368E-01  6.67117993E-01  6.67118478E-01  7.42511179E-01  8.19718726E-01
  8.19719677E-01  8.26241949E-01  8.44102148E-01  8.44102637E-01  9.24496586E-01
  9.37033521E-01  9.37034872E-01  9.58494776E-01  1.07897999E+00  1.07898170E+00
  1.12965800E+00  1.12966672E+00  1.20182203E+00  1.26172520E+00  1.30036203E+00
  1.40669843E+00  1.40669939E+00  1.42840876E+00  1.42840948E+00  1.43152901E+00
  1.43153084E+00  1.74984983E+00  1.75795679E+00  1.81470398E+00  1.88206846E+00
  1.92342892E+00  1.92343017E+00  1.96928699E+00  1.96928836E+00  1.97808884E+00
  1.97809122E+00  2.02395853E+00  2.07430629E+00  2.07431179E+00  2.29659843E+00
  2.29660055E+00  2.35647909E+00  2.35648091E+00  2.36672103E+00  2.41081044E+00
  2.41469854E+00  2.41469995E+00  2.44339482E+00  2.44339705E+00  2.49451042E+00
  2.49451056E+00  2.52560742E+00  2.59359087E+00  2.60007997E+00  2.60008139E+00
  2.65805057E+00  2.77166639E+00  2.81135749E+00  2.81136008E+00  3.04900595E+00
  3.04900643E+00  3.19258414E+00  3.23462362E+00  3.24751530E+00  3.24751713E+00
  3.39439214E+00  3.50872883E+00  3.50872990E+00  3.95263795E+00  4.13057647E+00
  4.16189616E+00  4.16189744E+00  4.43904722E+00  4.43904795E+00  4.83087314E+00
Alpha MO coefficients                      R   N=       14400
  4.05140369E-01  1.97421864E-02 -2.51405826E-05  1.35101645E-04 -2.73952019E-09
 -2.54262086E-03  6.37172802E-05 -3.42471871E-04  1.20167507E-08 -4.02160346E-03
 -3.91547157E-03 -4.06102439E-03 -2.36254559E-05 -6.15561887E-10 -1.69938949E-09
  4.05079441E-01  1.97391148E-02  1.04448131E-04  8.93434934E-05 -3.24723269E-10
 -2.54125985E-03 -2.64952659E-04 -2.26629857E-04  1.11672702E-09 -3.95920826E-03