 Entering Gaussian System, Link 0=g16
 Input=Geometry-171-.com
 Output=Geometry-171-.log
 Initial command:
 /home/shohei/gaussian/g16/l1.exe "/home/shohei/gaussian/scratch/Gau-5883.inp" -scrdir="/home/shohei/gaussian/scratch/"
 Entering Link 1 = /home/shohei/gaussian/g16/l1.exe PID=      5885.
  
 Copyright (c) 1988-2017, Gaussian, Inc.  All Rights Reserved.
  
 This is part of the Gaussian(R) 16 program.  It is based on
 the Gaussian(R) 09 system (copyright 2009, Gaussian, Inc.),
 the Gaussian(R) 03 system (copyright 2003, Gaussian, Inc.),
 the Gaussian(R) 98 system (copyright 1998, Gaussian, Inc.),
 the Gaussian(R) 94 system (copyright 1995, Gaussian, Inc.),
 the Gaussian 92(TM) system (copyright 1992, Gaussian, Inc.),
 the Gaussian 90(TM) system (copyright 1990, Gaussian, Inc.),
 the Gaussian 88(TM) system (copyright 1988, Gaussian, Inc.),
 the Gaussian 86(TM) system (copyright 1986, Carnegie Mellon
 University), and the Gaussian 82(TM) system (copyright 1983,
 Carnegie Mellon University). Gaussian is a federally registered
 trademark of Gaussian, Inc.
  
 This software contains proprietary and confidential information,
 including trade secrets, belonging to Gaussian, Inc.
  
 This software is provided under written license and may be
 used, copied, transmitted, or stored only in accord with that
 written license.
  
 The following legend is applicable only to US Government
 contracts under FAR:
  
                    RESTRICTED RIGHTS LEGEND
  
 Use, reproduction and disclosure by the US Government is
 subject to restrictions as set forth in subparagraphs (a)
 and (c) of the Commercial Computer Software - Restricted
 Rights clause in FAR 52.227-19.
  
 Gaussian, Inc.
 340 Quinnipiac St., Bldg. 40, Wallingford CT 06492
  
  
 ---------------------------------------------------------------
 Warning -- This program may not be used in any manner that
 competes with the business of Gaussian, Inc. or will provide
 assistance to any competitor of Gaussian, Inc.  The licensee
 of this program is prohibited from giving any competitor of
 Gaussian, Inc. access to this program.  By using this program,
 the user acknowledges that Gaussian, Inc. is engaged in the
 business of creating and licensing software in the field of
 computational chemistry and represents and warrants to the
 licensee that it is not a competitor of Gaussian, Inc. and that
 it will not use this program in any manner prohibited above.
 ---------------------------------------------------------------
  

 Cite this work as:
 Gaussian 16, Revision B.01,
 M. J. Frisch, G. W. Trucks, H. B. Schlegel, G. E. Scuseria, 
 M. A. Robb, J. R. Cheeseman, G. Scalmani, V. Barone, 
 G. A. Petersson, H. Nakatsuji, X. Li, M. Caricato, A. V. Marenich, 
 J. Bloino, B. G. Janesko, R. Gomperts, B. Mennucci, H. P. Hratchian, 
 J. V. Ortiz, A. F. Izmaylov, J. L. Sonnenberg, D. Williams-Young, 
 F. Ding, F. Lipparini, F. Egidi, J. Goings, B. Peng, A. Petrone, 
 T. Henderson, D. Ranasinghe, V. G. Zakrzewski, J. Gao, N. Rega, 
 G. Zheng, W. Liang, M. Hada, M. Ehara, K. Toyota, R. Fukuda, 
 J. Hasegawa, M. Ishida, T. Nakajima, Y. Honda, O. Kitao, H. Nakai, 
 T. Vreven, K. Throssell, J. A. Montgomery, Jr., J. E. Peralta, 
 F. Ogliaro, M. J. Bearpark, J. J. Heyd, E. N. Brothers, K. N. Kudin, 
 V. N. Staroverov, T. A. Keith, R. Kobayashi, J. Normand, 
 K. Raghavachari, A. P. Rendell, J. C. Burant, S. S. Iyengar, 
 J. Tomasi, M. Cossi, J. M. Millam, M. Klene, C. Adamo, R. Cammi, 
 J. W. Ochterski, R. L. Martin, K. Morokuma, O. Farkas, 
 J. B. Foresman, and D. J. Fox, Gaussian, Inc., Wallingford CT, 2016.
 
 ******************************************
 Gaussian 16:  EM64L-G16RevB.01 20-Dec-2017
                10-Nov-2023 
 ******************************************
 %nproc=4
 Will use up to    4 processors via shared memory.
 %Mem=2Gb
 ---------------------------------
 # TD=(NStates=1) B3LYP/6-31G(d,p)
 ---------------------------------
 1/38=1,172=1/1;
 2/12=2,17=6,18=5,40=1/2;
 3/5=1,6=6,7=101,11=9,25=1,30=1,74=-5/1,2,3,8;
 4//1;
 5/5=2,38=5/2;
 8/6=1,10=2,108=1/1;
 9/41=1,42=1,70=2/14;
 6/7=2,8=2,9=2,10=2/1;
 99/5=1,9=1/99;
 -------
 ABSSPCT
 -------
 Symbolic Z-matrix:
 Charge =  0 Multiplicity = 1
 6                    -0.29421   1.36909   0.01258 
 6                     1.1083    0.91616  -0.04097 
 6                     1.3393   -0.45811  -0.00357 
 6                     0.23717  -1.3793    0.05756 
 6                    -1.0604   -0.86583  -0.09982 
 6                    -1.32435   0.42822   0.05634 
 1                    -0.4659    2.41377   0.17509 
 1                    -2.29556   0.84017   0.1261 
 1                    -1.99754  -1.57586  -0.21189 
 1                     0.43872  -2.52874   0.30499 
 1                     2.38681  -0.8694    0.09543 
 1                     1.8424    1.64925  -0.17257 
 
                          Input orientation:                          
 ---------------------------------------------------------------------
 Center     Atomic      Atomic             Coordinates (Angstroms)
 Number     Number       Type             X           Y           Z
 ---------------------------------------------------------------------
      1          6           0       -0.294213    1.369085    0.012584
      2          6           0        1.108305    0.916158   -0.040967
      3          6           0        1.339300   -0.458109   -0.003567
      4          6           0        0.237172   -1.379299    0.057557
      5          6           0       -1.060403   -0.865834   -0.099818
      6          6           0       -1.324347    0.428224    0.056336
      7          1           0       -0.465900    2.413768    0.175088
      8          1           0       -2.295559    0.840172    0.126097
      9          1           0       -1.997537   -1.575863   -0.211895
     10          1           0        0.438720   -2.528743    0.304990
     11          1           0        2.386811   -0.869397    0.095430
     12          1           0        1.842402    1.649246   -0.172568
 ---------------------------------------------------------------------
                    Distance matrix (angstroms):
                    1          2          3          4          5
     1  C    0.000000
     2  C    1.474811   0.000000
     3  C    2.450972   1.394047   0.000000
     4  C    2.799645   2.457174   1.437712   0.000000
     5  C    2.365279   2.807535   2.435996   1.404320   0.000000
     6  C    1.395819   2.483010   2.807879   2.388615   1.329900
     7  H    1.071096   2.183492   3.396814   3.859467   3.344368
     8  H    2.073167   3.408808   3.861935   3.368305   2.118278
     9  H    3.409461   3.985679   3.525231   2.259461   1.181068
    10  H    3.976903   3.526383   2.278986   1.192923   2.275194
    11  H    3.493645   2.200316   1.129707   2.209612   3.452741
    12  H    2.162844   1.045771   2.173159   3.435377   3.841510
                    6          7          8          9         10
     6  C    0.000000
     7  H    2.166430   0.000000
     8  H    1.057271   2.413763   0.000000
     9  H    2.131078   4.291016   2.457698   0.000000
    10  H    3.451649   5.026294   4.342565   2.666551   0.000000
    11  H    3.931671   4.350113   4.984792   4.451522   2.567568
    12  H    3.401704   2.456343   4.226881   5.014779   4.433281
                   11         12
    11  H    0.000000
    12  H    2.590708   0.000000
 Stoichiometry    C6H6
 Framework group  C1[X(C6H6)]
 Deg. of freedom    30
 Full point group                 C1      NOp   1
 Largest Abelian subgroup         C1      NOp   1
 Largest concise Abelian subgroup C1      NOp   1
                         Standard orientation:                         
 ---------------------------------------------------------------------
 Center     Atomic      Atomic             Coordinates (Angstroms)
 Number     Number       Type             X           Y           Z
 ---------------------------------------------------------------------
      1          6           0        0.218139   -1.383145    0.013007
      2          6           0       -1.157705   -0.854996   -0.043351
      3          6           0       -1.313812    0.529914   -0.011343
      4          6           0       -0.163358    1.390175    0.047144
      5          6           0        1.104534    0.806462   -0.107274
      6          6           0        1.297782   -0.499402    0.053991
      7          1           0        0.332796   -2.434975    0.179604
      8          1           0        2.245171   -0.963170    0.126070
      9          1           0        2.078877    1.464164   -0.221314
     10          1           0       -0.302380    2.549800    0.290060
     11          1           0       -2.337520    0.997808    0.085279
     12          1           0       -1.930424   -1.547671   -0.172743
 ---------------------------------------------------------------------
 Rotational constants (GHZ):           5.7058242           5.5000904           2.8143950
 Standard basis: 6-31G(d,p) (6D, 7F)
 There are   120 symmetry adapted cartesian basis functions of A   symmetry.
 There are   120 symmetry adapted basis functions of A   symmetry.
   120 basis functions,   210 primitive gaussians,   120 cartesian basis functions
    21 alpha electrons       21 beta electrons
       nuclear repulsion energy       201.6770436737 Hartrees.
 NAtoms=   12 NActive=   12 NUniq=   12 SFac= 1.00D+00 NAtFMM=   60 NAOKFM=F Big=F
 Integral buffers will be    131072 words long.
 Regular integral format.
 Two-electron integral symmetry is turned on.
 One-electron integrals computed using PRISM.
 NBasis=   120 RedAO= T EigKep=  7.91D-04  NBF=   120
 NBsUse=   120 1.00D-06 EigRej= -1.00D+00 NBFU=   120
 ExpMin= 1.61D-01 ExpMax= 3.05D+03 ExpMxC= 4.57D+02 IAcc=3 IRadAn=         5 AccDes= 0.00D+00
 Harris functional with IExCor=  402 and IRadAn=       5 diagonalized for initial guess.
 HarFok:  IExCor=  402 AccDes= 0.00D+00 IRadAn=         5 IDoV= 1 UseB2=F ITyADJ=14
 ICtDFT=  3500011 ScaDFX=  1.000000  1.000000  1.000000  1.000000
 FoFCou: FMM=F IPFlag=           0 FMFlag=      100000 FMFlg1=           0
         NFxFlg=           0 DoJE=T BraDBF=F KetDBF=T FulRan=T
         wScrn=  0.000000 ICntrl=       500 IOpCl=  0 I1Cent=   200000004 NGrid=           0
         NMat0=    1 NMatS0=      1 NMatT0=    0 NMatD0=    1 NMtDS0=    0 NMtDT0=    0
 Petite list used in FoFCou.
 Keep R1 ints in memory in canonical form, NReq=30147728.
 Requested convergence on RMS density matrix=1.00D-08 within 128 cycles.
 Requested convergence on MAX density matrix=1.00D-06.
 Requested convergence on             energy=1.00D-06.
 No special actions if energy rises.
 Integral accuracy reduced to 1.0D-05 until final iterations.
 Initial convergence to 1.0D-05 achieved.  Increase integral accuracy.
 SCF Done:  E(RB3LYP) =  -232.224206289     A.U. after   13 cycles
            NFock= 13  Conv=0.48D-08     -V/T= 2.0111
 DoSCS=F DFT=T ScalE2(SS,OS)=  1.000000  1.000000
 ExpMin= 1.61D-01 ExpMax= 3.05D+03 ExpMxC= 4.57D+02 IAcc=3 IRadAn=         5 AccDes= 0.00D+00
 HarFok:  IExCor=  205 AccDes= 0.00D+00 IRadAn=         5 IDoV=-2 UseB2=F ITyADJ=14
 ICtDFT= 12500011 ScaDFX=  1.000000  1.000000  1.000000  1.000000
 Range of M.O.s used for correlation:     7   120
 NBasis=   120 NAE=    21 NBE=    21 NFC=     6 NFV=     0
 NROrb=    114 NOA=    15 NOB=    15 NVA=    99 NVB=    99
 Keep R1, R2, and R3 ints in memory in canonical form, NReq=84032236.
 Orbital symmetries:
       Occupied  (A) (A) (A) (A) (A) (A) (A) (A) (A) (A) (A) (A)
                 (A) (A) (A) (A) (A) (A) (A) (A) (A)
       Virtual   (A) (A) (A) (A) (A) (A) (A) (A) (A) (A) (A) (A)
                 (A) (A) (A) (A) (A) (A) (A) (A) (A) (A) (A) (A)
                 (A) (A) (A) (A) (A) (A) (A) (A) (A) (A) (A) (A)
                 (A) (A) (A) (A) (A) (A) (A) (A) (A) (A) (A) (A)
                 (A) (A) (A) (A) (A) (A) (A) (A) (A) (A) (A) (A)
                 (A) (A) (A) (A) (A) (A) (A) (A) (A) (A) (A) (A)
                 (A) (A) (A) (A) (A) (A) (A) (A) (A) (A) (A) (A)
                 (A) (A) (A) (A) (A) (A) (A) (A) (A) (A) (A) (A)
                 (A) (A) (A)
     4 initial guesses have been made.
 Convergence on wavefunction:    0.001000000000000
 Iteration     1 Dimension     4 NMult     0 NNew      4
 CISAX will form     4 AO SS matrices at one time.
 New state      1 was old state      2
 Iteration     2 Dimension     6 NMult     4 NNew      2
 Iteration     3 Dimension     8 NMult     6 NNew      2
 Iteration     4 Dimension    10 NMult     8 NNew      2
 Iteration     5 Dimension    12 NMult    10 NNew      2
 Iteration     6 Dimension    14 NMult    12 NNew      2
 ***********************************************************************
 Excited states from <AA,BB:AA,BB> singles matrix:
 ***********************************************************************
 
 Ground to excited state transition densities written to RWF  633
 Ground to excited state transition electric dipole moments (Au):
       state          X           Y           Z        Dip. S.      Osc.
         1         0.0414     -0.0658     -0.0018      0.0060      0.0008
 Ground to excited state transition velocity dipole moments (Au):
       state          X           Y           Z        Dip. S.      Osc.
         1        -0.0087      0.0117      0.0007      0.0002      0.0007
 Ground to excited state transition magnetic dipole moments (Au):
       state          X           Y           Z
         1         0.0314      0.0318     -0.0008
 Ground to excited state transition velocity quadrupole moments (Au):
       state          XX          YY          ZZ          XY          XZ          YZ
         1        -0.0015     -0.0035      0.0024     -0.0042     -0.0256      0.0227
 <0|del|b> * <b|rxdel|0> + <0|del|b> * <b|delr+rdel|0>
 Rotatory Strengths (R) in cgs (10**-40 erg-esu-cm/Gauss)
       state          XX          YY          ZZ    R(velocity)    E-M Angle
         1         1.2050     -0.8432     -0.0049      0.1189       90.00
 1/2[<0|r|b>*<b|rxdel|0> + (<0|rxdel|b>*<b|r|0>)*]
 Rotatory Strengths (R) in cgs (10**-40 erg-esu-cm/Gauss)
       state          XX          YY          ZZ     R(length)
         1        -0.9186      1.4811     -0.0011      0.1872
  1/2[<0|del|b>*<b|r|0> + (<0|r|b>*<b|del|0>)*] (Au)
       state          X           Y           Z        Dip. S.   Osc.(frdel)
         1        -0.0004     -0.0008     -0.0000      0.0011      0.0008

 Excitation energies and oscillator strengths:
 
 Excited State   1:      Singlet-A      5.3245 eV  232.85 nm  f=0.0008  <S**2>=0.000
      20 -> 22         0.49533
      21 -> 22        -0.12188
      21 -> 23        -0.48542
 This state for optimization and/or second-order correction.
 Total Energy, E(TD-HF/TD-DFT) =  -232.028532969    
 Copying the excited state density for this state as the 1-particle RhoCI density.
 SavETr:  write IOETrn=   770 NScale= 10 NData=  16 NLR=1 NState=    1 LETran=      28.

 **********************************************************************

            Population analysis using the SCF Density.

 **********************************************************************

 Orbital symmetries:
       Occupied  (A) (A) (A) (A) (A) (A) (A) (A) (A) (A) (A) (A)
                 (A) (A) (A) (A) (A) (A) (A) (A) (A)
       Virtual   (A) (A) (A) (A) (A) (A) (A) (A) (A) (A) (A) (A)
                 (A) (A) (A) (A) (A) (A) (A) (A) (A) (A) (A) (A)
                 (A) (A) (A) (A) (A) (A) (A) (A) (A) (A) (A) (A)
                 (A) (A) (A) (A) (A) (A) (A) (A) (A) (A) (A) (A)
                 (A) (A) (A) (A) (A) (A) (A) (A) (A) (A) (A) (A)
                 (A) (A) (A) (A) (A) (A) (A) (A) (A) (A) (A) (A)
                 (A) (A) (A) (A) (A) (A) (A) (A) (A) (A) (A) (A)
                 (A) (A) (A) (A) (A) (A) (A) (A) (A) (A) (A) (A)
                 (A) (A) (A)
 The electronic state is 1-A.
 Alpha  occ. eigenvalues --  -10.20487 -10.19819 -10.19411 -10.19197 -10.19078
 Alpha  occ. eigenvalues --  -10.18032  -0.84556  -0.74618  -0.72848  -0.59870
 Alpha  occ. eigenvalues --   -0.59033  -0.51228  -0.45634  -0.43864  -0.41889
 Alpha  occ. eigenvalues --   -0.40394  -0.36682  -0.34016  -0.32440  -0.25323
 Alpha  occ. eigenvalues --   -0.23613
 Alpha virt. eigenvalues --   -0.01202   0.00686   0.07827   0.13295   0.13422
 Alpha virt. eigenvalues --    0.15305   0.16342   0.17710   0.19291   0.27367
 Alpha virt. eigenvalues --    0.30296   0.31264   0.32863   0.46703   0.51256
 Alpha virt. eigenvalues --    0.52621   0.53348   0.55589   0.57611   0.59133
 Alpha virt. eigenvalues --    0.59537   0.60043   0.61424   0.62717   0.64158
 Alpha virt. eigenvalues --    0.66292   0.66859   0.73439   0.77475   0.79469
 Alpha virt. eigenvalues --    0.81404   0.83300   0.85661   0.91731   0.91960
 Alpha virt. eigenvalues --    0.92974   0.95962   1.04971   1.07003   1.08092
 Alpha virt. eigenvalues --    1.13059   1.16141   1.24179   1.28933   1.32349
 Alpha virt. eigenvalues --    1.34922   1.43439   1.44615   1.45621   1.52442
 Alpha virt. eigenvalues --    1.70388   1.74075   1.75173   1.79218   1.88720
 Alpha virt. eigenvalues --    1.89287   1.94115   1.96837   1.97131   1.98496
 Alpha virt. eigenvalues --    2.04477   2.05840   2.08367   2.23349   2.26522
 Alpha virt. eigenvalues --    2.30043   2.31851   2.33635   2.37688   2.41055
 Alpha virt. eigenvalues --    2.42460   2.43509   2.44435   2.47127   2.49496
 Alpha virt. eigenvalues --    2.51315   2.53692   2.56159   2.59953   2.67415
 Alpha virt. eigenvalues --    2.73272   2.75292   2.78774   2.95883   3.02723
 Alpha virt. eigenvalues --    3.07050   3.08428   3.20028   3.29101   3.34678
 Alpha virt. eigenvalues --    3.42850   3.54776   3.88168   4.12190   4.15904
 Alpha virt. eigenvalues --    4.18275   4.42315   4.44463   4.77042
          Condensed to atoms (all electrons):
               1          2          3          4          5          6
     1  C    4.860141   0.518769  -0.031462  -0.045722  -0.035469   0.550653
     2  C    0.518769   4.820912   0.551922  -0.036883  -0.038186  -0.035905
     3  C   -0.031462   0.551922   4.827521   0.521269  -0.035395  -0.035713
     4  C   -0.045722  -0.036883   0.521269   4.869399   0.534910  -0.038249
     5  C   -0.035469  -0.038186  -0.035395   0.534910   4.809865   0.563443
     6  C    0.550653  -0.035905  -0.035713  -0.038249   0.563443   4.749687
     7  H    0.366931  -0.042052   0.004386   0.000588   0.005789  -0.040277
     8  H   -0.046998   0.005272   0.000426   0.005508  -0.046002   0.375019
     9  H    0.005286   0.000532   0.003784  -0.036718   0.354296  -0.041689
    10  H    0.000553   0.003185  -0.033932   0.356218  -0.032585   0.003191
    11  H    0.004031  -0.040192   0.362469  -0.038969   0.004052   0.000548
    12  H   -0.042711   0.373817  -0.042742   0.004510   0.000366   0.004849
               7          8          9         10         11         12
     1  C    0.366931  -0.046998   0.005286   0.000553   0.004031  -0.042711
     2  C   -0.042052   0.005272   0.000532   0.003185  -0.040192   0.373817
     3  C    0.004386   0.000426   0.003784  -0.033932   0.362469  -0.042742
     4  C    0.000588   0.005508  -0.036718   0.356218  -0.038969   0.004510
     5  C    0.005789  -0.046002   0.354296  -0.032585   0.004052   0.000366
     6  C   -0.040277   0.375019  -0.041689   0.003191   0.000548   0.004849
     7  H    0.631830  -0.007386  -0.000211   0.000011  -0.000169  -0.005143
     8  H   -0.007386   0.636149  -0.008717  -0.000160   0.000016  -0.000220
     9  H   -0.000211  -0.008717   0.652076  -0.004606  -0.000132   0.000015
    10  H    0.000011  -0.000160  -0.004606   0.623074  -0.004746  -0.000128
    11  H   -0.000169   0.000016  -0.000132  -0.004746   0.631891  -0.005148
    12  H   -0.005143  -0.000220   0.000015  -0.000128  -0.005148   0.623459
 Mulliken charges:
               1
     1  C   -0.104002
     2  C   -0.081192
     3  C   -0.092534
     4  C   -0.095860
     5  C   -0.085084
     6  C   -0.055557
     7  H    0.085704
     8  H    0.087092
     9  H    0.076085
    10  H    0.089926
    11  H    0.086349
    12  H    0.089075
 Sum of Mulliken charges =  -0.00000
 Mulliken charges with hydrogens summed into heavy atoms:
               1
     1  C   -0.018298
     2  C    0.007883
     3  C   -0.006185
     4  C   -0.005935
     5  C   -0.008999
     6  C    0.031535
 Electronic spatial extent (au):  <R**2>=            464.3001
 Charge=             -0.0000 electrons
 Dipole moment (field-independent basis, Debye):
    X=              0.0220    Y=             -0.1503    Z=              0.1785  Tot=              0.2344
 Quadrupole moment (field-independent basis, Debye-Ang):
   XX=            -31.6967   YY=            -31.6321   ZZ=            -38.6177
   XY=             -0.1296   XZ=              0.0036   YZ=              0.2136
 Traceless Quadrupole moment (field-independent basis, Debye-Ang):
   XX=              2.2854   YY=              2.3501   ZZ=             -4.6355
   XY=             -0.1296   XZ=              0.0036   YZ=              0.2136
 Octapole moment (field-independent basis, Debye-Ang**2):
  XXX=              0.2809  YYY=             -1.4505  ZZZ=              0.2083  XYY=             -0.7486
  XXY=             -0.8278  XXZ=             -0.1451  XZZ=              0.2926  YZZ=             -0.3558
  YYZ=              1.8556  XYZ=             -1.3882
 Hexadecapole moment (field-independent basis, Debye-Ang**3):
 XXXX=           -279.9044 YYYY=           -271.7240 ZZZZ=            -41.8585 XXXY=             -0.5963
 XXXZ=             -0.0093 YYYX=             -0.7188 YYYZ=              2.0023 ZZZX=              0.1853
 ZZZY=              0.1200 XXYY=            -91.9079 XXZZ=            -61.9386 YYZZ=            -60.7329
 XXYZ=             -0.0511 YYXZ=             -0.0312 ZZXY=             -0.0348
 N-N= 2.016770436737D+02 E-N=-9.404509027563D+02  KE= 2.296825430151D+02
 1\1\GINC-DESKTOP-PRN5QE3\SP\RB3LYP TD-FC\6-31G(d,p)\C6H6\SHOHEI\10-Nov
 -2023\0\\# TD=(NStates=1) B3LYP/6-31G(d,p)\\ABSSPCT\\0,1\C,0,-0.294212
 8811,1.3690854537,0.012583908\C,0,1.1083047897,0.9161584283,-0.0409665
 371\C,0,1.3392999442,-0.4581088501,-0.0035673306\C,0,0.237171865,-1.37
 92994525,0.0575571938\C,0,-1.0604031807,-0.8658335383,-0.0998178869\C,
 0,-1.3243466265,0.4282237497,0.0563356196\H,0,-0.4659004581,2.41376829
 13,0.1750875781\H,0,-2.2955587152,0.8401724858,0.1260974199\H,0,-1.997
 5369005,-1.5758625611,-0.2118947091\H,0,0.4387196109,-2.5287429903,0.3
 049900046\H,0,2.3868109983,-0.8693970452,0.0954301565\H,0,1.8424021506
 ,1.6492463973,-0.1725684826\\Version=EM64L-G16RevB.01\State=1-A\HF=-23
 2.2242063\RMSD=4.763e-09\PG=C01 [X(C6H6)]\\@


 SILVERMAN'S PARADOX - IF MURPHY'S LAW CAN GO WRONG, IT WILL.
 Job cpu time:       0 days  0 hours  3 minutes 34.6 seconds.
 Elapsed time:       0 days  0 hours  0 minutes 54.3 seconds.
 File lengths (MBytes):  RWF=    116 Int=      0 D2E=      0 Chk=      3 Scr=      1
 Normal termination of Gaussian 16 at Fri Nov 10 18:28:12 2023.
