 Entering Gaussian System, Link 0=g16
 Input=Geometry-244-.com
 Output=Geometry-244-.log
 Initial command:
 /home/shohei/gaussian/g16/l1.exe "/home/shohei/gaussian/scratch/Gau-12057.inp" -scrdir="/home/shohei/gaussian/scratch/"
 Entering Link 1 = /home/shohei/gaussian/g16/l1.exe PID=     12059.
  
 Copyright (c) 1988-2017, Gaussian, Inc.  All Rights Reserved.
  
 This is part of the Gaussian(R) 16 program.  It is based on
 the Gaussian(R) 09 system (copyright 2009, Gaussian, Inc.),
 the Gaussian(R) 03 system (copyright 2003, Gaussian, Inc.),
 the Gaussian(R) 98 system (copyright 1998, Gaussian, Inc.),
 the Gaussian(R) 94 system (copyright 1995, Gaussian, Inc.),
 the Gaussian 92(TM) system (copyright 1992, Gaussian, Inc.),
 the Gaussian 90(TM) system (copyright 1990, Gaussian, Inc.),
 the Gaussian 88(TM) system (copyright 1988, Gaussian, Inc.),
 the Gaussian 86(TM) system (copyright 1986, Carnegie Mellon
 University), and the Gaussian 82(TM) system (copyright 1983,
 Carnegie Mellon University). Gaussian is a federally registered
 trademark of Gaussian, Inc.
  
 This software contains proprietary and confidential information,
 including trade secrets, belonging to Gaussian, Inc.
  
 This software is provided under written license and may be
 used, copied, transmitted, or stored only in accord with that
 written license.
  
 The following legend is applicable only to US Government
 contracts under FAR:
  
                    RESTRICTED RIGHTS LEGEND
  
 Use, reproduction and disclosure by the US Government is
 subject to restrictions as set forth in subparagraphs (a)
 and (c) of the Commercial Computer Software - Restricted
 Rights clause in FAR 52.227-19.
  
 Gaussian, Inc.
 340 Quinnipiac St., Bldg. 40, Wallingford CT 06492
  
  
 ---------------------------------------------------------------
 Warning -- This program may not be used in any manner that
 competes with the business of Gaussian, Inc. or will provide
 assistance to any competitor of Gaussian, Inc.  The licensee
 of this program is prohibited from giving any competitor of
 Gaussian, Inc. access to this program.  By using this program,
 the user acknowledges that Gaussian, Inc. is engaged in the
 business of creating and licensing software in the field of
 computational chemistry and represents and warrants to the
 licensee that it is not a competitor of Gaussian, Inc. and that
 it will not use this program in any manner prohibited above.
 ---------------------------------------------------------------
  

 Cite this work as:
 Gaussian 16, Revision B.01,
 M. J. Frisch, G. W. Trucks, H. B. Schlegel, G. E. Scuseria, 
 M. A. Robb, J. R. Cheeseman, G. Scalmani, V. Barone, 
 G. A. Petersson, H. Nakatsuji, X. Li, M. Caricato, A. V. Marenich, 
 J. Bloino, B. G. Janesko, R. Gomperts, B. Mennucci, H. P. Hratchian, 
 J. V. Ortiz, A. F. Izmaylov, J. L. Sonnenberg, D. Williams-Young, 
 F. Ding, F. Lipparini, F. Egidi, J. Goings, B. Peng, A. Petrone, 
 T. Henderson, D. Ranasinghe, V. G. Zakrzewski, J. Gao, N. Rega, 
 G. Zheng, W. Liang, M. Hada, M. Ehara, K. Toyota, R. Fukuda, 
 J. Hasegawa, M. Ishida, T. Nakajima, Y. Honda, O. Kitao, H. Nakai, 
 T. Vreven, K. Throssell, J. A. Montgomery, Jr., J. E. Peralta, 
 F. Ogliaro, M. J. Bearpark, J. J. Heyd, E. N. Brothers, K. N. Kudin, 
 V. N. Staroverov, T. A. Keith, R. Kobayashi, J. Normand, 
 K. Raghavachari, A. P. Rendell, J. C. Burant, S. S. Iyengar, 
 J. Tomasi, M. Cossi, J. M. Millam, M. Klene, C. Adamo, R. Cammi, 
 J. W. Ochterski, R. L. Martin, K. Morokuma, O. Farkas, 
 J. B. Foresman, and D. J. Fox, Gaussian, Inc., Wallingford CT, 2016.
 
 ******************************************
 Gaussian 16:  EM64L-G16RevB.01 20-Dec-2017
                10-Nov-2023 
 ******************************************
 %nproc=4
 Will use up to    4 processors via shared memory.
 %Mem=2Gb
 ---------------------------------
 # TD=(NStates=1) B3LYP/6-31G(d,p)
 ---------------------------------
 1/38=1,172=1/1;
 2/12=2,17=6,18=5,40=1/2;
 3/5=1,6=6,7=101,11=9,25=1,30=1,74=-5/1,2,3,8;
 4//1;
 5/5=2,38=5/2;
 8/6=1,10=2,108=1/1;
 9/41=1,42=1,70=2/14;
 6/7=2,8=2,9=2,10=2/1;
 99/5=1,9=1/99;
 -------
 ABSSPCT
 -------
 Symbolic Z-matrix:
 Charge =  0 Multiplicity = 1
 6                    -0.22476   1.35407   0.03777 
 6                     1.02498   0.89224   0.01779 
 6                     1.31082  -0.49546  -0.04377 
 6                     0.26316  -1.36159   0.03623 
 6                    -1.03082  -0.86392   0.01593 
 6                    -1.33741   0.49122  -0.01606 
 1                    -0.51928   2.41844  -0.08294 
 1                    -2.44078   0.69043  -0.30503 
 1                    -1.77738  -1.65576  -0.04877 
 1                     0.45816  -2.4572   -0.06355 
 1                     2.40069  -0.78099  -0.13278 
 1                     1.79671   1.5945   -0.05477 
 
                          Input orientation:                          
 ---------------------------------------------------------------------
 Center     Atomic      Atomic             Coordinates (Angstroms)
 Number     Number       Type             X           Y           Z
 ---------------------------------------------------------------------
      1          6           0       -0.224761    1.354069    0.037771
      2          6           0        1.024979    0.892241    0.017791
      3          6           0        1.310821   -0.495463   -0.043766
      4          6           0        0.263158   -1.361595    0.036228
      5          6           0       -1.030819   -0.863921    0.015928
      6          6           0       -1.337406    0.491220   -0.016056
      7          1           0       -0.519279    2.418443   -0.082937
      8          1           0       -2.440782    0.690433   -0.305031
      9          1           0       -1.777384   -1.655762   -0.048773
     10          1           0        0.458155   -2.457204   -0.063552
     11          1           0        2.400693   -0.780991   -0.132781
     12          1           0        1.796710    1.594503   -0.054773
 ---------------------------------------------------------------------
                    Distance matrix (angstroms):
                    1          2          3          4          5
     1  C    0.000000
     2  C    1.332492   0.000000
     3  C    2.405292   1.418174   0.000000
     4  C    2.759148   2.379178   1.361684   0.000000
     5  C    2.360018   2.703778   2.371203   1.386530   0.000000
     6  C    1.409036   2.396419   2.826202   2.448971   1.389758
     7  H    1.110947   2.173516   3.441170   3.862006   3.323456
     8  H    2.338520   3.486609   3.943239   3.411534   2.122976
     9  H    3.387803   3.788138   3.298990   2.063388   1.090210
    10  H    3.873299   3.398041   2.139126   1.117291   2.182180
    11  H    3.388301   2.171397   1.130164   2.221424   3.435734
    12  H    2.037822   1.045948   2.145732   3.331453   3.747502
                    6          7          8          9         10
     6  C    0.000000
     7  H    2.094753   0.000000
     8  H    1.157857   2.593746   0.000000
     9  H    2.191845   4.264169   2.451611   0.000000
    10  H    3.452463   4.972694   4.285997   2.374903   0.000000
    11  H    3.950384   4.331871   5.063067   4.269498   2.566698
    12  H    3.322862   2.458349   4.340082   4.830984   4.267099
                   11         12
    11  H    0.000000
    12  H    2.452316   0.000000
 Stoichiometry    C6H6
 Framework group  C1[X(C6H6)]
 Deg. of freedom    30
 Full point group                 C1      NOp   1
 Largest Abelian subgroup         C1      NOp   1
 Largest concise Abelian subgroup C1      NOp   1
                         Standard orientation:                         
 ---------------------------------------------------------------------
 Center     Atomic      Atomic             Coordinates (Angstroms)
 Number     Number       Type             X           Y           Z
 ---------------------------------------------------------------------
      1          6           0       -1.028135   -0.912220   -0.049503
      2          6           0        0.233178   -1.341127   -0.023707
      3          6           0        1.329360   -0.443631    0.040343
      4          6           0        1.062020    0.888923   -0.043387
      5          6           0       -0.256387    1.317954   -0.029127
      6          6           0       -1.348524    0.459004    0.000303
      7          1           0       -1.928018   -1.552827    0.068966
      8          1           0       -2.331914    1.000211    0.284329
      9          1           0       -0.337323    2.403376    0.033068
     10          1           0        1.903448    1.616942    0.058228
     11          1           0        2.355174   -0.908546    0.134323
     12          1           0        0.389564   -2.372575    0.051551
 ---------------------------------------------------------------------
 Rotational constants (GHZ):           5.9195757           5.6388544           2.8943045
 Standard basis: 6-31G(d,p) (6D, 7F)
 There are   120 symmetry adapted cartesian basis functions of A   symmetry.
 There are   120 symmetry adapted basis functions of A   symmetry.
   120 basis functions,   210 primitive gaussians,   120 cartesian basis functions
    21 alpha electrons       21 beta electrons
       nuclear repulsion energy       204.5444003996 Hartrees.
 NAtoms=   12 NActive=   12 NUniq=   12 SFac= 1.00D+00 NAtFMM=   60 NAOKFM=F Big=F
 Integral buffers will be    131072 words long.
 Regular integral format.
 Two-electron integral symmetry is turned on.
 One-electron integrals computed using PRISM.
 NBasis=   120 RedAO= T EigKep=  6.04D-04  NBF=   120
 NBsUse=   120 1.00D-06 EigRej= -1.00D+00 NBFU=   120
 ExpMin= 1.61D-01 ExpMax= 3.05D+03 ExpMxC= 4.57D+02 IAcc=3 IRadAn=         5 AccDes= 0.00D+00
 Harris functional with IExCor=  402 and IRadAn=       5 diagonalized for initial guess.
 HarFok:  IExCor=  402 AccDes= 0.00D+00 IRadAn=         5 IDoV= 1 UseB2=F ITyADJ=14
 ICtDFT=  3500011 ScaDFX=  1.000000  1.000000  1.000000  1.000000
 FoFCou: FMM=F IPFlag=           0 FMFlag=      100000 FMFlg1=           0
         NFxFlg=           0 DoJE=T BraDBF=F KetDBF=T FulRan=T
         wScrn=  0.000000 ICntrl=       500 IOpCl=  0 I1Cent=   200000004 NGrid=           0
         NMat0=    1 NMatS0=      1 NMatT0=    0 NMatD0=    1 NMtDS0=    0 NMtDT0=    0
 Petite list used in FoFCou.
 Keep R1 ints in memory in canonical form, NReq=30147728.
 Requested convergence on RMS density matrix=1.00D-08 within 128 cycles.
 Requested convergence on MAX density matrix=1.00D-06.
 Requested convergence on             energy=1.00D-06.
 No special actions if energy rises.
 Integral accuracy reduced to 1.0D-05 until final iterations.
 Initial convergence to 1.0D-05 achieved.  Increase integral accuracy.
 SCF Done:  E(RB3LYP) =  -232.233843481     A.U. after   13 cycles
            NFock= 13  Conv=0.31D-08     -V/T= 2.0096
 DoSCS=F DFT=T ScalE2(SS,OS)=  1.000000  1.000000
 ExpMin= 1.61D-01 ExpMax= 3.05D+03 ExpMxC= 4.57D+02 IAcc=3 IRadAn=         5 AccDes= 0.00D+00
 HarFok:  IExCor=  205 AccDes= 0.00D+00 IRadAn=         5 IDoV=-2 UseB2=F ITyADJ=14
 ICtDFT= 12500011 ScaDFX=  1.000000  1.000000  1.000000  1.000000
 Range of M.O.s used for correlation:     7   120
 NBasis=   120 NAE=    21 NBE=    21 NFC=     6 NFV=     0
 NROrb=    114 NOA=    15 NOB=    15 NVA=    99 NVB=    99
 Keep R1, R2, and R3 ints in memory in canonical form, NReq=84032236.
 Orbital symmetries:
       Occupied  (A) (A) (A) (A) (A) (A) (A) (A) (A) (A) (A) (A)
                 (A) (A) (A) (A) (A) (A) (A) (A) (A)
       Virtual   (A) (A) (A) (A) (A) (A) (A) (A) (A) (A) (A) (A)
                 (A) (A) (A) (A) (A) (A) (A) (A) (A) (A) (A) (A)
                 (A) (A) (A) (A) (A) (A) (A) (A) (A) (A) (A) (A)
                 (A) (A) (A) (A) (A) (A) (A) (A) (A) (A) (A) (A)
                 (A) (A) (A) (A) (A) (A) (A) (A) (A) (A) (A) (A)
                 (A) (A) (A) (A) (A) (A) (A) (A) (A) (A) (A) (A)
                 (A) (A) (A) (A) (A) (A) (A) (A) (A) (A) (A) (A)
                 (A) (A) (A) (A) (A) (A) (A) (A) (A) (A) (A) (A)
                 (A) (A) (A)
     4 initial guesses have been made.
 Convergence on wavefunction:    0.001000000000000
 Iteration     1 Dimension     4 NMult     0 NNew      4
 CISAX will form     4 AO SS matrices at one time.
 New state      1 was old state      2
 Iteration     2 Dimension     6 NMult     4 NNew      2
 Iteration     3 Dimension     8 NMult     6 NNew      2
 Iteration     4 Dimension    10 NMult     8 NNew      2
 Iteration     5 Dimension    12 NMult    10 NNew      2
 ***********************************************************************
 Excited states from <AA,BB:AA,BB> singles matrix:
 ***********************************************************************
 
 Ground to excited state transition densities written to RWF  633
 Ground to excited state transition electric dipole moments (Au):
       state          X           Y           Z        Dip. S.      Osc.
         1        -0.0837     -0.0422     -0.0031      0.0088      0.0012
 Ground to excited state transition velocity dipole moments (Au):
       state          X           Y           Z        Dip. S.      Osc.
         1         0.0183      0.0091      0.0002      0.0004      0.0014
 Ground to excited state transition magnetic dipole moments (Au):
       state          X           Y           Z
         1        -0.0243      0.0022      0.0190
 Ground to excited state transition velocity quadrupole moments (Au):
       state          XX          YY          ZZ          XY          XZ          YZ
         1        -0.0139     -0.0032      0.0067      0.0030     -0.0066     -0.0178
 <0|del|b> * <b|rxdel|0> + <0|del|b> * <b|delr+rdel|0>
 Rotatory Strengths (R) in cgs (10**-40 erg-esu-cm/Gauss)
       state          XX          YY          ZZ    R(velocity)    E-M Angle
         1         0.1444     -1.3159     -0.2724     -0.4813      131.77
 1/2[<0|r|b>*<b|rxdel|0> + (<0|rxdel|b>*<b|r|0>)*]
 Rotatory Strengths (R) in cgs (10**-40 erg-esu-cm/Gauss)
       state          XX          YY          ZZ     R(length)
         1        -1.4374      0.0649      0.0412     -0.4438
  1/2[<0|del|b>*<b|r|0> + (<0|r|b>*<b|del|0>)*] (Au)
       state          X           Y           Z        Dip. S.   Osc.(frdel)
         1        -0.0015     -0.0004     -0.0000      0.0019      0.0013

 Excitation energies and oscillator strengths:
 
 Excited State   1:      Singlet-A      5.6203 eV  220.60 nm  f=0.0012  <S**2>=0.000
      20 -> 22         0.48403
      20 -> 23         0.13976
      21 -> 22        -0.19186
      21 -> 23         0.45709
 This state for optimization and/or second-order correction.
 Total Energy, E(TD-HF/TD-DFT) =  -232.027301356    
 Copying the excited state density for this state as the 1-particle RhoCI density.
 SavETr:  write IOETrn=   770 NScale= 10 NData=  16 NLR=1 NState=    1 LETran=      28.

 **********************************************************************

            Population analysis using the SCF Density.

 **********************************************************************

 Orbital symmetries:
       Occupied  (A) (A) (A) (A) (A) (A) (A) (A) (A) (A) (A) (A)
                 (A) (A) (A) (A) (A) (A) (A) (A) (A)
       Virtual   (A) (A) (A) (A) (A) (A) (A) (A) (A) (A) (A) (A)
                 (A) (A) (A) (A) (A) (A) (A) (A) (A) (A) (A) (A)
                 (A) (A) (A) (A) (A) (A) (A) (A) (A) (A) (A) (A)
                 (A) (A) (A) (A) (A) (A) (A) (A) (A) (A) (A) (A)
                 (A) (A) (A) (A) (A) (A) (A) (A) (A) (A) (A) (A)
                 (A) (A) (A) (A) (A) (A) (A) (A) (A) (A) (A) (A)
                 (A) (A) (A) (A) (A) (A) (A) (A) (A) (A) (A) (A)
                 (A) (A) (A) (A) (A) (A) (A) (A) (A) (A) (A) (A)
                 (A) (A) (A)
 The electronic state is 1-A.
 Alpha  occ. eigenvalues --  -10.19467 -10.19132 -10.18708 -10.18590 -10.18368
 Alpha  occ. eigenvalues --  -10.17963  -0.85517  -0.74793  -0.73917  -0.60062
 Alpha  occ. eigenvalues --   -0.59356  -0.51714  -0.45882  -0.43433  -0.41656
 Alpha  occ. eigenvalues --   -0.41087  -0.36628  -0.34166  -0.32645  -0.25391
 Alpha  occ. eigenvalues --   -0.24512
 Alpha virt. eigenvalues --   -0.00275   0.01003   0.08101   0.12859   0.13944
 Alpha virt. eigenvalues --    0.15951   0.17231   0.18653   0.19440   0.29612
 Alpha virt. eigenvalues --    0.30426   0.31784   0.34028   0.45698   0.52036
 Alpha virt. eigenvalues --    0.53616   0.56106   0.56472   0.59567   0.59632
 Alpha virt. eigenvalues --    0.59977   0.61266   0.62395   0.63033   0.64374
 Alpha virt. eigenvalues --    0.66381   0.66948   0.73553   0.79201   0.80948
 Alpha virt. eigenvalues --    0.81621   0.82825   0.85141   0.91487   0.92573
 Alpha virt. eigenvalues --    0.95721   0.96724   1.07900   1.08854   1.09531
 Alpha virt. eigenvalues --    1.11858   1.20234   1.25903   1.27089   1.31138
 Alpha virt. eigenvalues --    1.38577   1.41722   1.43497   1.50290   1.52505
 Alpha virt. eigenvalues --    1.70537   1.75554   1.77281   1.81901   1.86810
 Alpha virt. eigenvalues --    1.94242   1.96624   1.98342   2.00853   2.01617
 Alpha virt. eigenvalues --    2.07331   2.08048   2.11054   2.25119   2.30638
 Alpha virt. eigenvalues --    2.31401   2.34103   2.36535   2.37998   2.38999
 Alpha virt. eigenvalues --    2.41805   2.45772   2.46964   2.48700   2.49261
 Alpha virt. eigenvalues --    2.49958   2.54362   2.56377   2.61097   2.71988
 Alpha virt. eigenvalues --    2.75750   2.79647   2.82274   2.93156   3.05893
 Alpha virt. eigenvalues --    3.15462   3.16809   3.20606   3.28781   3.40263
 Alpha virt. eigenvalues --    3.45345   3.53516   3.92460   4.14810   4.16274
 Alpha virt. eigenvalues --    4.18109   4.44605   4.45100   4.82851
          Condensed to atoms (all electrons):
               1          2          3          4          5          6
     1  C    4.808100   0.582806  -0.026547  -0.046284  -0.037365   0.518749
     2  C    0.582806   4.772313   0.532241  -0.039454  -0.043199  -0.040402
     3  C   -0.026547   0.532241   4.812768   0.564079  -0.034983  -0.045002
     4  C   -0.046284  -0.039454   0.564079   4.802972   0.546129  -0.037370
     5  C   -0.037365  -0.043199  -0.034983   0.546129   4.801321   0.556697
     6  C    0.518749  -0.040402  -0.045002  -0.037370   0.556697   4.855669
     7  H    0.363832  -0.038264   0.004734   0.000789   0.004905  -0.048141
     8  H   -0.030423   0.002954   0.000611   0.004137  -0.038984   0.360519
     9  H    0.005463   0.000882   0.005985  -0.046073   0.364307  -0.041716
    10  H    0.000390   0.004760  -0.043503   0.365542  -0.039854   0.005046
    11  H    0.004992  -0.040590   0.361751  -0.039462   0.004866   0.000556
    12  H   -0.049178   0.377275  -0.045238   0.006160   0.000429   0.006120
               7          8          9         10         11         12
     1  C    0.363832  -0.030423   0.005463   0.000390   0.004992  -0.049178
     2  C   -0.038264   0.002954   0.000882   0.004760  -0.040590   0.377275
     3  C    0.004734   0.000611   0.005985  -0.043503   0.361751  -0.045238
     4  C    0.000789   0.004137  -0.046073   0.365542  -0.039462   0.006160
     5  C    0.004905  -0.038984   0.364307  -0.039854   0.004866   0.000429
     6  C   -0.048141   0.360519  -0.041716   0.005046   0.000556   0.006120
     7  H    0.641426  -0.004323  -0.000250   0.000019  -0.000160  -0.008662
     8  H   -0.004323   0.617983  -0.006538  -0.000182   0.000014  -0.000158
     9  H   -0.000250  -0.006538   0.648815  -0.009037  -0.000217   0.000016
    10  H    0.000019  -0.000182  -0.009037   0.638914  -0.005639  -0.000221
    11  H   -0.000160   0.000014  -0.000217  -0.005639   0.634512  -0.006679
    12  H   -0.008662  -0.000158   0.000016  -0.000221  -0.006679   0.637891
 Mulliken charges:
               1
     1  C   -0.094534
     2  C   -0.071321
     3  C   -0.086897
     4  C   -0.081165
     5  C   -0.084268
     6  C   -0.090725
     7  H    0.084094
     8  H    0.094389
     9  H    0.078363
    10  H    0.083765
    11  H    0.086057
    12  H    0.082243
 Sum of Mulliken charges =  -0.00000
 Mulliken charges with hydrogens summed into heavy atoms:
               1
     1  C   -0.010441
     2  C    0.010922
     3  C   -0.000840
     4  C    0.002600
     5  C   -0.005905
     6  C    0.003664
 Electronic spatial extent (au):  <R**2>=            453.4180
 Charge=             -0.0000 electrons
 Dipole moment (field-independent basis, Debye):
    X=              0.0622    Y=              0.0120    Z=              0.3792  Tot=              0.3844
 Quadrupole moment (field-independent basis, Debye-Ang):
   XX=            -31.7734   YY=            -31.8313   ZZ=            -38.3680
   XY=             -0.2252   XZ=             -0.3146   YZ=              0.1131
 Traceless Quadrupole moment (field-independent basis, Debye-Ang):
   XX=              2.2175   YY=              2.1596   ZZ=             -4.3771
   XY=             -0.2252   XZ=             -0.3146   YZ=              0.1131
 Octapole moment (field-independent basis, Debye-Ang**2):
  XXX=              0.2772  YYY=             -0.0802  ZZZ=              0.4297  XYY=              0.6235
  XXY=              0.1438  XXZ=              2.2497  XZZ=             -0.0247  YZZ=             -0.1399
  YYZ=              1.1851  XYZ=             -0.4495
 Hexadecapole moment (field-independent basis, Debye-Ang**3):
 XXXX=           -277.3885 YYYY=           -265.8329 ZZZZ=            -40.4239 XXXY=             -2.2854
 XXXZ=             -2.0996 YYYX=              0.1392 YYYZ=              0.0317 ZZZX=             -0.2887
 ZZZY=              0.0672 XXYY=            -88.9018 XXZZ=            -61.0403 YYZZ=            -58.5611
 XXYZ=              0.8872 YYXZ=             -0.4926 ZZXY=             -0.1201
 N-N= 2.045444003996D+02 E-N=-9.464776931253D+02  KE= 2.300192795494D+02
 1\1\GINC-DESKTOP-PRN5QE3\SP\RB3LYP TD-FC\6-31G(d,p)\C6H6\SHOHEI\10-Nov
 -2023\0\\# TD=(NStates=1) B3LYP/6-31G(d,p)\\ABSSPCT\\0,1\C,0,-0.224761
 2164,1.3540692127,0.0377713307\C,0,1.0249790337,0.8922409789,0.0177907
 723\C,0,1.3108210508,-0.495462595,-0.0437659934\C,0,0.263157517,-1.361
 5946892,0.0362276326\C,0,-1.0308190726,-0.8639209177,0.0159278186\C,0,
 -1.3374058586,0.4912203583,-0.0160557804\H,0,-0.5192794596,2.418443028
 6,-0.0829366362\H,0,-2.44078247,0.6904331012,-0.3050307736\H,0,-1.7773
 844141,-1.655761807,-0.0487726423\H,0,0.4581550076,-2.4572035892,-0.06
 35519984\H,0,2.4006933563,-0.7809907591,-0.1327814235\H,0,1.7967100715
 ,1.594503134,-0.0547731365\\Version=EM64L-G16RevB.01\State=1-A\HF=-232
 .2338435\RMSD=3.092e-09\PG=C01 [X(C6H6)]\\@


 GOD DOES NOT PLAY WITH DICE.
               -- A. EINSTEIN
 Job cpu time:       0 days  0 hours  3 minutes 11.5 seconds.
 Elapsed time:       0 days  0 hours  0 minutes 48.4 seconds.
 File lengths (MBytes):  RWF=    116 Int=      0 D2E=      0 Chk=      3 Scr=      1
 Normal termination of Gaussian 16 at Fri Nov 10 19:28:58 2023.
