 Entering Gaussian System, Link 0=g16
 Input=Geometry-279-.com
 Output=Geometry-279-.log
 Initial command:
 /home/shohei/gaussian/g16/l1.exe "/home/shohei/gaussian/scratch/Gau-24402.inp" -scrdir="/home/shohei/gaussian/scratch/"
 Entering Link 1 = /home/shohei/gaussian/g16/l1.exe PID=     24404.
  
 Copyright (c) 1988-2017, Gaussian, Inc.  All Rights Reserved.
  
 This is part of the Gaussian(R) 16 program.  It is based on
 the Gaussian(R) 09 system (copyright 2009, Gaussian, Inc.),
 the Gaussian(R) 03 system (copyright 2003, Gaussian, Inc.),
 the Gaussian(R) 98 system (copyright 1998, Gaussian, Inc.),
 the Gaussian(R) 94 system (copyright 1995, Gaussian, Inc.),
 the Gaussian 92(TM) system (copyright 1992, Gaussian, Inc.),
 the Gaussian 90(TM) system (copyright 1990, Gaussian, Inc.),
 the Gaussian 88(TM) system (copyright 1988, Gaussian, Inc.),
 the Gaussian 86(TM) system (copyright 1986, Carnegie Mellon
 University), and the Gaussian 82(TM) system (copyright 1983,
 Carnegie Mellon University). Gaussian is a federally registered
 trademark of Gaussian, Inc.
  
 This software contains proprietary and confidential information,
 including trade secrets, belonging to Gaussian, Inc.
  
 This software is provided under written license and may be
 used, copied, transmitted, or stored only in accord with that
 written license.
  
 The following legend is applicable only to US Government
 contracts under FAR:
  
                    RESTRICTED RIGHTS LEGEND
  
 Use, reproduction and disclosure by the US Government is
 subject to restrictions as set forth in subparagraphs (a)
 and (c) of the Commercial Computer Software - Restricted
 Rights clause in FAR 52.227-19.
  
 Gaussian, Inc.
 340 Quinnipiac St., Bldg. 40, Wallingford CT 06492
  
  
 ---------------------------------------------------------------
 Warning -- This program may not be used in any manner that
 competes with the business of Gaussian, Inc. or will provide
 assistance to any competitor of Gaussian, Inc.  The licensee
 of this program is prohibited from giving any competitor of
 Gaussian, Inc. access to this program.  By using this program,
 the user acknowledges that Gaussian, Inc. is engaged in the
 business of creating and licensing software in the field of
 computational chemistry and represents and warrants to the
 licensee that it is not a competitor of Gaussian, Inc. and that
 it will not use this program in any manner prohibited above.
 ---------------------------------------------------------------
  

 Cite this work as:
 Gaussian 16, Revision B.01,
 M. J. Frisch, G. W. Trucks, H. B. Schlegel, G. E. Scuseria, 
 M. A. Robb, J. R. Cheeseman, G. Scalmani, V. Barone, 
 G. A. Petersson, H. Nakatsuji, X. Li, M. Caricato, A. V. Marenich, 
 J. Bloino, B. G. Janesko, R. Gomperts, B. Mennucci, H. P. Hratchian, 
 J. V. Ortiz, A. F. Izmaylov, J. L. Sonnenberg, D. Williams-Young, 
 F. Ding, F. Lipparini, F. Egidi, J. Goings, B. Peng, A. Petrone, 
 T. Henderson, D. Ranasinghe, V. G. Zakrzewski, J. Gao, N. Rega, 
 G. Zheng, W. Liang, M. Hada, M. Ehara, K. Toyota, R. Fukuda, 
 J. Hasegawa, M. Ishida, T. Nakajima, Y. Honda, O. Kitao, H. Nakai, 
 T. Vreven, K. Throssell, J. A. Montgomery, Jr., J. E. Peralta, 
 F. Ogliaro, M. J. Bearpark, J. J. Heyd, E. N. Brothers, K. N. Kudin, 
 V. N. Staroverov, T. A. Keith, R. Kobayashi, J. Normand, 
 K. Raghavachari, A. P. Rendell, J. C. Burant, S. S. Iyengar, 
 J. Tomasi, M. Cossi, J. M. Millam, M. Klene, C. Adamo, R. Cammi, 
 J. W. Ochterski, R. L. Martin, K. Morokuma, O. Farkas, 
 J. B. Foresman, and D. J. Fox, Gaussian, Inc., Wallingford CT, 2016.
 
 ******************************************
 Gaussian 16:  EM64L-G16RevB.01 20-Dec-2017
                10-Nov-2023 
 ******************************************
 %nproc=4
 Will use up to    4 processors via shared memory.
 %Mem=2Gb
 ---------------------------------
 # TD=(NStates=1) B3LYP/6-31G(d,p)
 ---------------------------------
 1/38=1,172=1/1;
 2/12=2,17=6,18=5,40=1/2;
 3/5=1,6=6,7=101,11=9,25=1,30=1,74=-5/1,2,3,8;
 4//1;
 5/5=2,38=5/2;
 8/6=1,10=2,108=1/1;
 9/41=1,42=1,70=2/14;
 6/7=2,8=2,9=2,10=2/1;
 99/5=1,9=1/99;
 -------
 ABSSPCT
 -------
 Symbolic Z-matrix:
 Charge =  0 Multiplicity = 1
 6                    -0.28819   1.41691  -0.03273 
 6                     1.03491   0.93902  -0.00324 
 6                     1.34219  -0.51822   0.07139 
 6                     0.24565  -1.43131  -0.06099 
 6                    -1.0403   -0.85253  -0.07576 
 6                    -1.32686   0.45858   0.09507 
 1                    -0.29836   2.50825  -0.07023 
 1                    -2.31254   0.72898   0.09213 
 1                    -1.63912  -1.7345    0.08242 
 1                     0.34211  -2.55629   0.2192 
 1                     2.35099  -0.84385   0.15411 
 1                     1.89848   1.71963  -0.27896 
 
                          Input orientation:                          
 ---------------------------------------------------------------------
 Center     Atomic      Atomic             Coordinates (Angstroms)
 Number     Number       Type             X           Y           Z
 ---------------------------------------------------------------------
      1          6           0       -0.288190    1.416910   -0.032730
      2          6           0        1.034906    0.939022   -0.003241
      3          6           0        1.342190   -0.518223    0.071394
      4          6           0        0.245654   -1.431307   -0.060991
      5          6           0       -1.040305   -0.852530   -0.075764
      6          6           0       -1.326856    0.458582    0.095067
      7          1           0       -0.298357    2.508246   -0.070231
      8          1           0       -2.312537    0.728981    0.092131
      9          1           0       -1.639118   -1.734502    0.082424
     10          1           0        0.342113   -2.556293    0.219197
     11          1           0        2.350989   -0.843853    0.154110
     12          1           0        1.898485    1.719625   -0.278964
 ---------------------------------------------------------------------
                    Distance matrix (angstroms):
                    1          2          3          4          5
     1  C    0.000000
     2  C    1.407064   0.000000
     3  C    2.532532   1.491159   0.000000
     4  C    2.897952   2.498942   1.433052   0.000000
     5  C    2.391210   2.742521   2.410331   1.410280   0.000000
     6  C    1.418997   2.412138   2.842273   2.463498   1.352890
     7  H    1.092027   2.060229   3.445427   3.976947   3.441705
     8  H    2.141686   3.355382   3.861733   3.351811   2.036650
     9  H    3.430694   3.782258   3.219884   1.914383   1.077717
    10  H    4.030767   3.570247   2.275022   1.163358   2.213795
    11  H    3.480118   2.221592   1.063274   2.196316   3.399086
    12  H    2.221218   1.196299   2.332419   3.564791   3.910723
                    6          7          8          9         10
     6  C    0.000000
     7  H    2.299185   0.000000
     8  H    1.022102   2.692408   0.000000
     9  H    2.215239   4.452173   2.553887   0.000000
    10  H    3.448237   5.113073   4.225676   2.149262   0.000000
    11  H    3.902097   4.278543   4.922004   4.088930   2.640505
    12  H    3.483238   2.343418   4.341865   4.957441   4.577546
                   11         12
    11  H    0.000000
    12  H    2.638888   0.000000
 Stoichiometry    C6H6
 Framework group  C1[X(C6H6)]
 Deg. of freedom    30
 Full point group                 C1      NOp   1
 Largest Abelian subgroup         C1      NOp   1
 Largest concise Abelian subgroup C1      NOp   1
                         Standard orientation:                         
 ---------------------------------------------------------------------
 Center     Atomic      Atomic             Coordinates (Angstroms)
 Number     Number       Type             X           Y           Z
 ---------------------------------------------------------------------
      1          6           0        1.440718   -0.158094    0.018333
      2          6           0        0.841323    1.114613   -0.009429
      3          6           0       -0.639065    1.284547   -0.065369
      4          6           0       -1.444219    0.108432    0.083356
      5          6           0       -0.748036   -1.117980    0.094898
      6          6           0        0.581700   -1.282066   -0.092692
      7          1           0        2.528656   -0.066448    0.041044
      8          1           0        0.942748   -2.238271   -0.089878
      9          1           0       -1.572407   -1.797054   -0.049137
     10          1           0       -2.576895    0.098391   -0.181872
     11          1           0       -1.058304    2.258241   -0.147289
     12          1           0        1.541665    2.048433    0.252552
 ---------------------------------------------------------------------
 Rotational constants (GHZ):           5.7517411           5.3311808           2.7809570
 Standard basis: 6-31G(d,p) (6D, 7F)
 There are   120 symmetry adapted cartesian basis functions of A   symmetry.
 There are   120 symmetry adapted basis functions of A   symmetry.
   120 basis functions,   210 primitive gaussians,   120 cartesian basis functions
    21 alpha electrons       21 beta electrons
       nuclear repulsion energy       200.6828070441 Hartrees.
 NAtoms=   12 NActive=   12 NUniq=   12 SFac= 1.00D+00 NAtFMM=   60 NAOKFM=F Big=F
 Integral buffers will be    131072 words long.
 Regular integral format.
 Two-electron integral symmetry is turned on.
 One-electron integrals computed using PRISM.
 NBasis=   120 RedAO= T EigKep=  9.74D-04  NBF=   120
 NBsUse=   120 1.00D-06 EigRej= -1.00D+00 NBFU=   120
 ExpMin= 1.61D-01 ExpMax= 3.05D+03 ExpMxC= 4.57D+02 IAcc=3 IRadAn=         5 AccDes= 0.00D+00
 Harris functional with IExCor=  402 and IRadAn=       5 diagonalized for initial guess.
 HarFok:  IExCor=  402 AccDes= 0.00D+00 IRadAn=         5 IDoV= 1 UseB2=F ITyADJ=14
 ICtDFT=  3500011 ScaDFX=  1.000000  1.000000  1.000000  1.000000
 FoFCou: FMM=F IPFlag=           0 FMFlag=      100000 FMFlg1=           0
         NFxFlg=           0 DoJE=T BraDBF=F KetDBF=T FulRan=T
         wScrn=  0.000000 ICntrl=       500 IOpCl=  0 I1Cent=   200000004 NGrid=           0
         NMat0=    1 NMatS0=      1 NMatT0=    0 NMatD0=    1 NMtDS0=    0 NMtDT0=    0
 Petite list used in FoFCou.
 Keep R1 ints in memory in canonical form, NReq=30147728.
 Requested convergence on RMS density matrix=1.00D-08 within 128 cycles.
 Requested convergence on MAX density matrix=1.00D-06.
 Requested convergence on             energy=1.00D-06.
 No special actions if energy rises.
 Integral accuracy reduced to 1.0D-05 until final iterations.
 Initial convergence to 1.0D-05 achieved.  Increase integral accuracy.
 SCF Done:  E(RB3LYP) =  -232.205683475     A.U. after   13 cycles
            NFock= 13  Conv=0.59D-08     -V/T= 2.0113
 DoSCS=F DFT=T ScalE2(SS,OS)=  1.000000  1.000000
 ExpMin= 1.61D-01 ExpMax= 3.05D+03 ExpMxC= 4.57D+02 IAcc=3 IRadAn=         5 AccDes= 0.00D+00
 HarFok:  IExCor=  205 AccDes= 0.00D+00 IRadAn=         5 IDoV=-2 UseB2=F ITyADJ=14
 ICtDFT= 12500011 ScaDFX=  1.000000  1.000000  1.000000  1.000000
 Range of M.O.s used for correlation:     7   120
 NBasis=   120 NAE=    21 NBE=    21 NFC=     6 NFV=     0
 NROrb=    114 NOA=    15 NOB=    15 NVA=    99 NVB=    99
 Keep R1, R2, and R3 ints in memory in canonical form, NReq=84032236.
 Orbital symmetries:
       Occupied  (A) (A) (A) (A) (A) (A) (A) (A) (A) (A) (A) (A)
                 (A) (A) (A) (A) (A) (A) (A) (A) (A)
       Virtual   (A) (A) (A) (A) (A) (A) (A) (A) (A) (A) (A) (A)
                 (A) (A) (A) (A) (A) (A) (A) (A) (A) (A) (A) (A)
                 (A) (A) (A) (A) (A) (A) (A) (A) (A) (A) (A) (A)
                 (A) (A) (A) (A) (A) (A) (A) (A) (A) (A) (A) (A)
                 (A) (A) (A) (A) (A) (A) (A) (A) (A) (A) (A) (A)
                 (A) (A) (A) (A) (A) (A) (A) (A) (A) (A) (A) (A)
                 (A) (A) (A) (A) (A) (A) (A) (A) (A) (A) (A) (A)
                 (A) (A) (A) (A) (A) (A) (A) (A) (A) (A) (A) (A)
                 (A) (A) (A)
     4 initial guesses have been made.
 Convergence on wavefunction:    0.001000000000000
 Iteration     1 Dimension     4 NMult     0 NNew      4
 CISAX will form     4 AO SS matrices at one time.
 Iteration     2 Dimension     6 NMult     4 NNew      2
 Iteration     3 Dimension     8 NMult     6 NNew      2
 Iteration     4 Dimension    10 NMult     8 NNew      2
 Iteration     5 Dimension    12 NMult    10 NNew      2
 ***********************************************************************
 Excited states from <AA,BB:AA,BB> singles matrix:
 ***********************************************************************
 
 Ground to excited state transition densities written to RWF  633
 Ground to excited state transition electric dipole moments (Au):
       state          X           Y           Z        Dip. S.      Osc.
         1         0.0642     -0.0995      0.0010      0.0140      0.0018
 Ground to excited state transition velocity dipole moments (Au):
       state          X           Y           Z        Dip. S.      Osc.
         1        -0.0149      0.0210      0.0003      0.0007      0.0023
 Ground to excited state transition magnetic dipole moments (Au):
       state          X           Y           Z
         1         0.0166      0.0290      0.0488
 Ground to excited state transition velocity quadrupole moments (Au):
       state          XX          YY          ZZ          XY          XZ          YZ
         1        -0.0153      0.0127      0.0013      0.0020     -0.0193     -0.0079
 <0|del|b> * <b|rxdel|0> + <0|del|b> * <b|delr+rdel|0>
 Rotatory Strengths (R) in cgs (10**-40 erg-esu-cm/Gauss)
       state          XX          YY          ZZ    R(velocity)    E-M Angle
         1         1.9124     -0.2137     -0.3014      0.4658       75.68
 1/2[<0|r|b>*<b|rxdel|0> + (<0|rxdel|b>*<b|r|0>)*]
 Rotatory Strengths (R) in cgs (10**-40 erg-esu-cm/Gauss)
       state          XX          YY          ZZ     R(length)
         1        -0.7558      2.0390     -0.0337      0.4165
  1/2[<0|del|b>*<b|r|0> + (<0|r|b>*<b|del|0>)*] (Au)
       state          X           Y           Z        Dip. S.   Osc.(frdel)
         1        -0.0010     -0.0021      0.0000      0.0030      0.0020

 Excitation energies and oscillator strengths:
 
 Excited State   1:      Singlet-A      5.1778 eV  239.45 nm  f=0.0018  <S**2>=0.000
      20 -> 22         0.34844
      20 -> 23        -0.31689
      21 -> 22         0.39323
      21 -> 23         0.35072
 This state for optimization and/or second-order correction.
 Total Energy, E(TD-HF/TD-DFT) =  -232.015404075    
 Copying the excited state density for this state as the 1-particle RhoCI density.
 SavETr:  write IOETrn=   770 NScale= 10 NData=  16 NLR=1 NState=    1 LETran=      28.

 **********************************************************************

            Population analysis using the SCF Density.

 **********************************************************************

 Orbital symmetries:
       Occupied  (A) (A) (A) (A) (A) (A) (A) (A) (A) (A) (A) (A)
                 (A) (A) (A) (A) (A) (A) (A) (A) (A)
       Virtual   (A) (A) (A) (A) (A) (A) (A) (A) (A) (A) (A) (A)
                 (A) (A) (A) (A) (A) (A) (A) (A) (A) (A) (A) (A)
                 (A) (A) (A) (A) (A) (A) (A) (A) (A) (A) (A) (A)
                 (A) (A) (A) (A) (A) (A) (A) (A) (A) (A) (A) (A)
                 (A) (A) (A) (A) (A) (A) (A) (A) (A) (A) (A) (A)
                 (A) (A) (A) (A) (A) (A) (A) (A) (A) (A) (A) (A)
                 (A) (A) (A) (A) (A) (A) (A) (A) (A) (A) (A) (A)
                 (A) (A) (A) (A) (A) (A) (A) (A) (A) (A) (A) (A)
                 (A) (A) (A)
 The electronic state is 1-A.
 Alpha  occ. eigenvalues --  -10.20606 -10.19990 -10.19947 -10.19728 -10.18777
 Alpha  occ. eigenvalues --  -10.18420  -0.84172  -0.74114  -0.73280  -0.61208
 Alpha  occ. eigenvalues --   -0.57776  -0.51398  -0.45944  -0.44380  -0.41978
 Alpha  occ. eigenvalues --   -0.39628  -0.35521  -0.33981  -0.32517  -0.24810
 Alpha  occ. eigenvalues --   -0.24168
 Alpha virt. eigenvalues --   -0.01205  -0.00498   0.08160   0.11749   0.14234
 Alpha virt. eigenvalues --    0.15030   0.16693   0.17718   0.19483   0.27128
 Alpha virt. eigenvalues --    0.29106   0.29720   0.31936   0.47101   0.49163
 Alpha virt. eigenvalues --    0.52424   0.53137   0.54478   0.58181   0.59290
 Alpha virt. eigenvalues --    0.60294   0.60679   0.61697   0.63186   0.64295
 Alpha virt. eigenvalues --    0.66374   0.67367   0.73411   0.77210   0.79532
 Alpha virt. eigenvalues --    0.81007   0.82683   0.87345   0.90677   0.91278
 Alpha virt. eigenvalues --    0.93275   0.95312   1.00507   1.04557   1.09591
 Alpha virt. eigenvalues --    1.10065   1.13849   1.18815   1.26304   1.28550
 Alpha virt. eigenvalues --    1.34984   1.40592   1.43505   1.53682   1.56566
 Alpha virt. eigenvalues --    1.68433   1.72181   1.76730   1.78509   1.82618
 Alpha virt. eigenvalues --    1.91633   1.93477   1.96311   1.98374   2.00658
 Alpha virt. eigenvalues --    2.01229   2.05965   2.08889   2.20582   2.21596
 Alpha virt. eigenvalues --    2.25859   2.32997   2.34033   2.37824   2.39620
 Alpha virt. eigenvalues --    2.42054   2.43227   2.45404   2.47815   2.49392
 Alpha virt. eigenvalues --    2.51216   2.53132   2.57997   2.60438   2.65296
 Alpha virt. eigenvalues --    2.69074   2.73762   2.85409   2.85699   3.00555
 Alpha virt. eigenvalues --    3.07290   3.14670   3.21302   3.25938   3.36440
 Alpha virt. eigenvalues --    3.50405   3.55604   3.86438   4.10882   4.17119
 Alpha virt. eigenvalues --    4.18171   4.43493   4.45233   4.78771
          Condensed to atoms (all electrons):
               1          2          3          4          5          6
     1  C    4.836980   0.532730  -0.034419  -0.036906  -0.021707   0.513176
     2  C    0.532730   4.897322   0.507085  -0.030181  -0.043269  -0.038958
     3  C   -0.034419   0.507085   4.838262   0.542061  -0.041819  -0.032161
     4  C   -0.036906  -0.030181   0.542061   4.905077   0.497273  -0.039971
     5  C   -0.021707  -0.043269  -0.041819   0.497273   4.821797   0.566056
     6  C    0.513176  -0.038958  -0.032161  -0.039971   0.566056   4.794838
     7  H    0.371208  -0.046228   0.004799   0.000260   0.003780  -0.036141
     8  H   -0.049677   0.005731   0.000280   0.006670  -0.049667   0.380558
     9  H    0.004113   0.001013   0.006646  -0.058029   0.367655  -0.037452
    10  H    0.000301   0.003156  -0.035102   0.362023  -0.036842   0.004115
    11  H    0.004353  -0.040303   0.367235  -0.043339   0.005775   0.000424
    12  H   -0.038184   0.353615  -0.034617   0.003203   0.000278   0.004367
               7          8          9         10         11         12
     1  C    0.371208  -0.049677   0.004113   0.000301   0.004353  -0.038184
     2  C   -0.046228   0.005731   0.001013   0.003156  -0.040303   0.353615
     3  C    0.004799   0.000280   0.006646  -0.035102   0.367235  -0.034617
     4  C    0.000260   0.006670  -0.058029   0.362023  -0.043339   0.003203
     5  C    0.003780  -0.049667   0.367655  -0.036842   0.005775   0.000278
     6  C   -0.036141   0.380558  -0.037452   0.004115   0.000424   0.004367
     7  H    0.617792  -0.004226  -0.000113   0.000010  -0.000166  -0.007663
     8  H   -0.004226   0.629936  -0.006698  -0.000182   0.000013  -0.000172
     9  H   -0.000113  -0.006698   0.649518  -0.010509  -0.000382   0.000011
    10  H    0.000010  -0.000182  -0.010509   0.624522  -0.003401  -0.000087
    11  H   -0.000166   0.000013  -0.000382  -0.003401   0.624761  -0.003542
    12  H   -0.007663  -0.000172   0.000011  -0.000087  -0.003542   0.643477
 Mulliken charges:
               1
     1  C   -0.081968
     2  C   -0.101713
     3  C   -0.088249
     4  C   -0.108141
     5  C   -0.069310
     6  C   -0.078850
     7  H    0.096688
     8  H    0.087435
     9  H    0.084228
    10  H    0.091994
    11  H    0.088572
    12  H    0.079315
 Sum of Mulliken charges =  -0.00000
 Mulliken charges with hydrogens summed into heavy atoms:
               1
     1  C    0.014719
     2  C   -0.022398
     3  C    0.000323
     4  C   -0.016146
     5  C    0.014918
     6  C    0.008584
 Electronic spatial extent (au):  <R**2>=            467.8912
 Charge=             -0.0000 electrons
 Dipole moment (field-independent basis, Debye):
    X=             -0.0087    Y=              0.0033    Z=             -0.1379  Tot=              0.1382
 Quadrupole moment (field-independent basis, Debye-Ang):
   XX=            -30.9708   YY=            -32.5390   ZZ=            -38.7267
   XY=              0.2271   XZ=              0.9527   YZ=              0.3443
 Traceless Quadrupole moment (field-independent basis, Debye-Ang):
   XX=              3.1080   YY=              1.5399   ZZ=             -4.6479
   XY=              0.2271   XZ=              0.9527   YZ=              0.3443
 Octapole moment (field-independent basis, Debye-Ang**2):
  XXX=             -0.2709  YYY=              0.6179  ZZZ=             -0.2153  XYY=              0.3541
  XXY=             -0.1323  XXZ=             -0.9240  XZZ=              0.0225  YZZ=             -0.5207
  YYZ=             -0.2123  XYZ=              0.7768
 Hexadecapole moment (field-independent basis, Debye-Ang**3):
 XXXX=           -282.3997 YYYY=           -272.9452 ZZZZ=            -42.0183 XXXY=              4.7317
 XXXZ=              5.4991 YYYX=             -4.3878 YYYZ=              1.6843 ZZZX=              0.7983
 ZZZY=              0.2780 XXYY=            -94.1901 XXZZ=            -64.1168 YYZZ=            -59.8888
 XXYZ=              1.1453 YYXZ=              2.2957 ZZXY=             -0.2261
 N-N= 2.006828070441D+02 E-N=-9.383563390269D+02  KE= 2.296098523259D+02
 1\1\GINC-DESKTOP-PRN5QE3\SP\RB3LYP TD-FC\6-31G(d,p)\C6H6\SHOHEI\10-Nov
 -2023\0\\# TD=(NStates=1) B3LYP/6-31G(d,p)\\ABSSPCT\\0,1\C,0,-0.288189
 5022,1.4169096739,-0.0327298193\C,0,1.0349063873,0.9390215761,-0.00324
 11337\C,0,1.34218989,-0.5182233358,0.0713935214\C,0,0.2456542401,-1.43
 13070471,-0.060991132\C,0,-1.0403046145,-0.8525304124,-0.075763569\C,0
 ,-1.3268559376,0.4585823597,0.095066644\H,0,-0.2983574734,2.5082455113
 ,-0.0702314623\H,0,-2.3125371162,0.7289813572,0.0921307733\H,0,-1.6391
 180285,-1.7345018412,0.0824238086\H,0,0.3421134894,-2.5562926834,0.219
 1971731\H,0,2.3509887154,-0.8438528213,0.1541100475\H,0,1.8984845671,1
 .7196250308,-0.2789636443\\Version=EM64L-G16RevB.01\State=1-A\HF=-232.
 2056835\RMSD=5.892e-09\PG=C01 [X(C6H6)]\\@


 Sometimes the fool who rushes in gets the job done.
                                    -- Al Bernstein
 Job cpu time:       0 days  0 hours  3 minutes 23.6 seconds.
 Elapsed time:       0 days  0 hours  0 minutes 51.6 seconds.
 File lengths (MBytes):  RWF=    116 Int=      0 D2E=      0 Chk=      3 Scr=      1
 Normal termination of Gaussian 16 at Fri Nov 10 16:27:32 2023.
