 Entering Gaussian System, Link 0=g16
 Input=Geometry-255-.com
 Output=Geometry-255-.log
 Initial command:
 /home/shohei/gaussian/g16/l1.exe "/home/shohei/gaussian/scratch/Gau-20076.inp" -scrdir="/home/shohei/gaussian/scratch/"
 Entering Link 1 = /home/shohei/gaussian/g16/l1.exe PID=     20078.
  
 Copyright (c) 1988-2017, Gaussian, Inc.  All Rights Reserved.
  
 This is part of the Gaussian(R) 16 program.  It is based on
 the Gaussian(R) 09 system (copyright 2009, Gaussian, Inc.),
 the Gaussian(R) 03 system (copyright 2003, Gaussian, Inc.),
 the Gaussian(R) 98 system (copyright 1998, Gaussian, Inc.),
 the Gaussian(R) 94 system (copyright 1995, Gaussian, Inc.),
 the Gaussian 92(TM) system (copyright 1992, Gaussian, Inc.),
 the Gaussian 90(TM) system (copyright 1990, Gaussian, Inc.),
 the Gaussian 88(TM) system (copyright 1988, Gaussian, Inc.),
 the Gaussian 86(TM) system (copyright 1986, Carnegie Mellon
 University), and the Gaussian 82(TM) system (copyright 1983,
 Carnegie Mellon University). Gaussian is a federally registered
 trademark of Gaussian, Inc.
  
 This software contains proprietary and confidential information,
 including trade secrets, belonging to Gaussian, Inc.
  
 This software is provided under written license and may be
 used, copied, transmitted, or stored only in accord with that
 written license.
  
 The following legend is applicable only to US Government
 contracts under FAR:
  
                    RESTRICTED RIGHTS LEGEND
  
 Use, reproduction and disclosure by the US Government is
 subject to restrictions as set forth in subparagraphs (a)
 and (c) of the Commercial Computer Software - Restricted
 Rights clause in FAR 52.227-19.
  
 Gaussian, Inc.
 340 Quinnipiac St., Bldg. 40, Wallingford CT 06492
  
  
 ---------------------------------------------------------------
 Warning -- This program may not be used in any manner that
 competes with the business of Gaussian, Inc. or will provide
 assistance to any competitor of Gaussian, Inc.  The licensee
 of this program is prohibited from giving any competitor of
 Gaussian, Inc. access to this program.  By using this program,
 the user acknowledges that Gaussian, Inc. is engaged in the
 business of creating and licensing software in the field of
 computational chemistry and represents and warrants to the
 licensee that it is not a competitor of Gaussian, Inc. and that
 it will not use this program in any manner prohibited above.
 ---------------------------------------------------------------
  

 Cite this work as:
 Gaussian 16, Revision B.01,
 M. J. Frisch, G. W. Trucks, H. B. Schlegel, G. E. Scuseria, 
 M. A. Robb, J. R. Cheeseman, G. Scalmani, V. Barone, 
 G. A. Petersson, H. Nakatsuji, X. Li, M. Caricato, A. V. Marenich, 
 J. Bloino, B. G. Janesko, R. Gomperts, B. Mennucci, H. P. Hratchian, 
 J. V. Ortiz, A. F. Izmaylov, J. L. Sonnenberg, D. Williams-Young, 
 F. Ding, F. Lipparini, F. Egidi, J. Goings, B. Peng, A. Petrone, 
 T. Henderson, D. Ranasinghe, V. G. Zakrzewski, J. Gao, N. Rega, 
 G. Zheng, W. Liang, M. Hada, M. Ehara, K. Toyota, R. Fukuda, 
 J. Hasegawa, M. Ishida, T. Nakajima, Y. Honda, O. Kitao, H. Nakai, 
 T. Vreven, K. Throssell, J. A. Montgomery, Jr., J. E. Peralta, 
 F. Ogliaro, M. J. Bearpark, J. J. Heyd, E. N. Brothers, K. N. Kudin, 
 V. N. Staroverov, T. A. Keith, R. Kobayashi, J. Normand, 
 K. Raghavachari, A. P. Rendell, J. C. Burant, S. S. Iyengar, 
 J. Tomasi, M. Cossi, J. M. Millam, M. Klene, C. Adamo, R. Cammi, 
 J. W. Ochterski, R. L. Martin, K. Morokuma, O. Farkas, 
 J. B. Foresman, and D. J. Fox, Gaussian, Inc., Wallingford CT, 2016.
 
 ******************************************
 Gaussian 16:  EM64L-G16RevB.01 20-Dec-2017
                10-Nov-2023 
 ******************************************
 %nproc=4
 Will use up to    4 processors via shared memory.
 %Mem=2Gb
 ---------------------------------
 # TD=(NStates=1) B3LYP/6-31G(d,p)
 ---------------------------------
 1/38=1,172=1/1;
 2/12=2,17=6,18=5,40=1/2;
 3/5=1,6=6,7=101,11=9,25=1,30=1,74=-5/1,2,3,8;
 4//1;
 5/5=2,38=5/2;
 8/6=1,10=2,108=1/1;
 9/41=1,42=1,70=2/14;
 6/7=2,8=2,9=2,10=2/1;
 99/5=1,9=1/99;
 -------
 ABSSPCT
 -------
 Symbolic Z-matrix:
 Charge =  0 Multiplicity = 1
 6                    -0.20881   1.33921   0.02464 
 6                     1.09492   0.93523  -0.01707 
 6                     1.32074  -0.44741  -0.03011 
 6                     0.26742  -1.34523   0.06593 
 6                    -1.15201  -0.89773  -0.02975 
 6                    -1.32418   0.41183   0.04134 
 1                    -0.51015   2.50995  -0.00377 
 1                    -2.31744   0.79453  -0.2225 
 1                    -1.92852  -1.6622   -0.34483 
 1                     0.3841   -2.52642   0.03974 
 1                     2.46017  -0.76508  -0.07229 
 1                     1.94834   1.68297  -0.1221 
 
                          Input orientation:                          
 ---------------------------------------------------------------------
 Center     Atomic      Atomic             Coordinates (Angstroms)
 Number     Number       Type             X           Y           Z
 ---------------------------------------------------------------------
      1          6           0       -0.208808    1.339210    0.024641
      2          6           0        1.094917    0.935226   -0.017070
      3          6           0        1.320739   -0.447406   -0.030107
      4          6           0        0.267419   -1.345229    0.065931
      5          6           0       -1.152006   -0.897732   -0.029750
      6          6           0       -1.324176    0.411832    0.041337
      7          1           0       -0.510146    2.509953   -0.003769
      8          1           0       -2.317439    0.794528   -0.222504
      9          1           0       -1.928523   -1.662200   -0.344829
     10          1           0        0.384100   -2.526423    0.039735
     11          1           0        2.460173   -0.765084   -0.072285
     12          1           0        1.948338    1.682969   -0.122098
 ---------------------------------------------------------------------
                    Distance matrix (angstroms):
                    1          2          3          4          5
     1  C    0.000000
     2  C    1.365519   0.000000
     3  C    2.352554   1.401012   0.000000
     4  C    2.726667   2.427368   1.387369   0.000000
     5  C    2.428269   2.899751   2.513416   1.491367   0.000000
     6  C    1.450639   2.475755   2.781900   2.370874   1.322745
     7  H    1.209235   2.248592   3.478333   3.933432   3.467705
     8  H    2.191822   3.421428   3.849124   3.367974   2.063767
     9  H    3.478849   3.999405   3.483171   2.256403   1.134312
    10  H    3.910868   3.534332   2.281334   1.187232   2.239884
    11  H    3.400134   2.181291   1.183642   2.272409   3.614864
    12  H    2.189288   1.139508   2.222800   3.468548   4.034933
                    6          7          8          9         10
     6  C    0.000000
     7  H    2.250953   0.000000
     8  H    1.096649   2.501367   0.000000
     9  H    2.194532   4.419839   2.490328   0.000000
    10  H    3.398757   5.115334   4.289032   2.498598   0.000000
    11  H    3.964763   4.421918   5.027976   4.487733   2.724875
    12  H    3.514520   2.596545   4.358470   5.125409   4.493552
                   11         12
    11  H    0.000000
    12  H    2.501484   0.000000
 Stoichiometry    C6H6
 Framework group  C1[X(C6H6)]
 Deg. of freedom    30
 Full point group                 C1      NOp   1
 Largest Abelian subgroup         C1      NOp   1
 Largest concise Abelian subgroup C1      NOp   1
                         Standard orientation:                         
 ---------------------------------------------------------------------
 Center     Atomic      Atomic             Coordinates (Angstroms)
 Number     Number       Type             X           Y           Z
 ---------------------------------------------------------------------
      1          6           0        0.465238   -1.272897   -0.034624
      2          6           0        1.410119   -0.288364    0.015732
      3          6           0        0.938253    1.030723    0.029411
      4          6           0       -0.417433    1.306642   -0.074407
      5          6           0       -1.443348    0.227647    0.011863
      6          6           0       -0.959546   -1.001373   -0.059546
      7          1           0        0.768188   -2.443254   -0.007513
      8          1           0       -1.645011   -1.817815    0.197750
      9          1           0       -2.494865    0.519761    0.321130
     10          1           0       -0.887357    2.396598   -0.048184
     11          1           0        1.781164    1.860201    0.079169
     12          1           0        2.518184   -0.529763    0.127077
 ---------------------------------------------------------------------
 Rotational constants (GHZ):           5.8904897           5.2947071           2.7975184
 Standard basis: 6-31G(d,p) (6D, 7F)
 There are   120 symmetry adapted cartesian basis functions of A   symmetry.
 There are   120 symmetry adapted basis functions of A   symmetry.
   120 basis functions,   210 primitive gaussians,   120 cartesian basis functions
    21 alpha electrons       21 beta electrons
       nuclear repulsion energy       200.8502030072 Hartrees.
 NAtoms=   12 NActive=   12 NUniq=   12 SFac= 1.00D+00 NAtFMM=   60 NAOKFM=F Big=F
 Integral buffers will be    131072 words long.
 Regular integral format.
 Two-electron integral symmetry is turned on.
 One-electron integrals computed using PRISM.
 NBasis=   120 RedAO= T EigKep=  7.31D-04  NBF=   120
 NBsUse=   120 1.00D-06 EigRej= -1.00D+00 NBFU=   120
 ExpMin= 1.61D-01 ExpMax= 3.05D+03 ExpMxC= 4.57D+02 IAcc=3 IRadAn=         5 AccDes= 0.00D+00
 Harris functional with IExCor=  402 and IRadAn=       5 diagonalized for initial guess.
 HarFok:  IExCor=  402 AccDes= 0.00D+00 IRadAn=         5 IDoV= 1 UseB2=F ITyADJ=14
 ICtDFT=  3500011 ScaDFX=  1.000000  1.000000  1.000000  1.000000
 FoFCou: FMM=F IPFlag=           0 FMFlag=      100000 FMFlg1=           0
         NFxFlg=           0 DoJE=T BraDBF=F KetDBF=T FulRan=T
         wScrn=  0.000000 ICntrl=       500 IOpCl=  0 I1Cent=   200000004 NGrid=           0
         NMat0=    1 NMatS0=      1 NMatT0=    0 NMatD0=    1 NMtDS0=    0 NMtDT0=    0
 Petite list used in FoFCou.
 Keep R1 ints in memory in canonical form, NReq=30147728.
 Requested convergence on RMS density matrix=1.00D-08 within 128 cycles.
 Requested convergence on MAX density matrix=1.00D-06.
 Requested convergence on             energy=1.00D-06.
 No special actions if energy rises.
 Integral accuracy reduced to 1.0D-05 until final iterations.
 Initial convergence to 1.0D-05 achieved.  Increase integral accuracy.
 SCF Done:  E(RB3LYP) =  -232.213324355     A.U. after   13 cycles
            NFock= 13  Conv=0.43D-08     -V/T= 2.0122
 DoSCS=F DFT=T ScalE2(SS,OS)=  1.000000  1.000000
 ExpMin= 1.61D-01 ExpMax= 3.05D+03 ExpMxC= 4.57D+02 IAcc=3 IRadAn=         5 AccDes= 0.00D+00
 HarFok:  IExCor=  205 AccDes= 0.00D+00 IRadAn=         5 IDoV=-2 UseB2=F ITyADJ=14
 ICtDFT= 12500011 ScaDFX=  1.000000  1.000000  1.000000  1.000000
 Range of M.O.s used for correlation:     7   120
 NBasis=   120 NAE=    21 NBE=    21 NFC=     6 NFV=     0
 NROrb=    114 NOA=    15 NOB=    15 NVA=    99 NVB=    99
 Keep R1, R2, and R3 ints in memory in canonical form, NReq=84032236.
 Orbital symmetries:
       Occupied  (A) (A) (A) (A) (A) (A) (A) (A) (A) (A) (A) (A)
                 (A) (A) (A) (A) (A) (A) (A) (A) (A)
       Virtual   (A) (A) (A) (A) (A) (A) (A) (A) (A) (A) (A) (A)
                 (A) (A) (A) (A) (A) (A) (A) (A) (A) (A) (A) (A)
                 (A) (A) (A) (A) (A) (A) (A) (A) (A) (A) (A) (A)
                 (A) (A) (A) (A) (A) (A) (A) (A) (A) (A) (A) (A)
                 (A) (A) (A) (A) (A) (A) (A) (A) (A) (A) (A) (A)
                 (A) (A) (A) (A) (A) (A) (A) (A) (A) (A) (A) (A)
                 (A) (A) (A) (A) (A) (A) (A) (A) (A) (A) (A) (A)
                 (A) (A) (A) (A) (A) (A) (A) (A) (A) (A) (A) (A)
                 (A) (A) (A)
     4 initial guesses have been made.
 Convergence on wavefunction:    0.001000000000000
 Iteration     1 Dimension     4 NMult     0 NNew      4
 CISAX will form     4 AO SS matrices at one time.
 New state      1 was old state      2
 Iteration     2 Dimension     6 NMult     4 NNew      2
 Iteration     3 Dimension     8 NMult     6 NNew      2
 Iteration     4 Dimension    10 NMult     8 NNew      2
 Iteration     5 Dimension    12 NMult    10 NNew      2
 Iteration     6 Dimension    14 NMult    12 NNew      2
 ***********************************************************************
 Excited states from <AA,BB:AA,BB> singles matrix:
 ***********************************************************************
 
 Ground to excited state transition densities written to RWF  633
 Ground to excited state transition electric dipole moments (Au):
       state          X           Y           Z        Dip. S.      Osc.
         1        -0.0549     -0.1137      0.0033      0.0160      0.0021
 Ground to excited state transition velocity dipole moments (Au):
       state          X           Y           Z        Dip. S.      Osc.
         1         0.0122      0.0253     -0.0003      0.0008      0.0026
 Ground to excited state transition magnetic dipole moments (Au):
       state          X           Y           Z
         1        -0.0352      0.0304     -0.0126
 Ground to excited state transition velocity quadrupole moments (Au):
       state          XX          YY          ZZ          XY          XZ          YZ
         1         0.0141      0.0212     -0.0116     -0.0004     -0.0162     -0.0161
 <0|del|b> * <b|rxdel|0> + <0|del|b> * <b|delr+rdel|0>
 Rotatory Strengths (R) in cgs (10**-40 erg-esu-cm/Gauss)
       state          XX          YY          ZZ    R(velocity)    E-M Angle
         1         2.0758     -1.0977      0.2200      0.3994       75.42
 1/2[<0|r|b>*<b|rxdel|0> + (<0|rxdel|b>*<b|r|0>)*]
 Rotatory Strengths (R) in cgs (10**-40 erg-esu-cm/Gauss)
       state          XX          YY          ZZ     R(length)
         1        -1.3647      2.4416      0.0291      0.3687
  1/2[<0|del|b>*<b|r|0> + (<0|r|b>*<b|del|0>)*] (Au)
       state          X           Y           Z        Dip. S.   Osc.(frdel)
         1        -0.0007     -0.0029     -0.0000      0.0035      0.0024

 Excitation energies and oscillator strengths:
 
 Excited State   1:      Singlet-A      5.4667 eV  226.80 nm  f=0.0021  <S**2>=0.000
      20 -> 22        -0.46387
      21 -> 22         0.15953
      21 -> 23         0.49993
 This state for optimization and/or second-order correction.
 Total Energy, E(TD-HF/TD-DFT) =  -232.012428082    
 Copying the excited state density for this state as the 1-particle RhoCI density.
 SavETr:  write IOETrn=   770 NScale= 10 NData=  16 NLR=1 NState=    1 LETran=      28.

 **********************************************************************

            Population analysis using the SCF Density.

 **********************************************************************

 Orbital symmetries:
       Occupied  (A) (A) (A) (A) (A) (A) (A) (A) (A) (A) (A) (A)
                 (A) (A) (A) (A) (A) (A) (A) (A) (A)
       Virtual   (A) (A) (A) (A) (A) (A) (A) (A) (A) (A) (A) (A)
                 (A) (A) (A) (A) (A) (A) (A) (A) (A) (A) (A) (A)
                 (A) (A) (A) (A) (A) (A) (A) (A) (A) (A) (A) (A)
                 (A) (A) (A) (A) (A) (A) (A) (A) (A) (A) (A) (A)
                 (A) (A) (A) (A) (A) (A) (A) (A) (A) (A) (A) (A)
                 (A) (A) (A) (A) (A) (A) (A) (A) (A) (A) (A) (A)
                 (A) (A) (A) (A) (A) (A) (A) (A) (A) (A) (A) (A)
                 (A) (A) (A) (A) (A) (A) (A) (A) (A) (A) (A) (A)
                 (A) (A) (A)
 The electronic state is 1-A.
 Alpha  occ. eigenvalues --  -10.20565 -10.20314 -10.20204 -10.19739 -10.19592
 Alpha  occ. eigenvalues --  -10.18823  -0.84752  -0.75136  -0.72398  -0.59222
 Alpha  occ. eigenvalues --   -0.58621  -0.50435  -0.44667  -0.43905  -0.42199
 Alpha  occ. eigenvalues --   -0.39195  -0.36213  -0.34126  -0.32022  -0.25858
 Alpha  occ. eigenvalues --   -0.23992
 Alpha virt. eigenvalues --   -0.00913   0.00510   0.06500   0.11845   0.12101
 Alpha virt. eigenvalues --    0.14273   0.15762   0.16817   0.18646   0.26490
 Alpha virt. eigenvalues --    0.29313   0.31992   0.33560   0.46153   0.51344
 Alpha virt. eigenvalues --    0.52278   0.54206   0.55616   0.57299   0.58759
 Alpha virt. eigenvalues --    0.59801   0.60171   0.60776   0.62687   0.65765
 Alpha virt. eigenvalues --    0.65951   0.66930   0.72746   0.76536   0.78870
 Alpha virt. eigenvalues --    0.79235   0.81500   0.82369   0.88188   0.92295
 Alpha virt. eigenvalues --    0.94272   0.95434   1.03105   1.07045   1.09255
 Alpha virt. eigenvalues --    1.13295   1.17003   1.26468   1.27873   1.30135
 Alpha virt. eigenvalues --    1.31477   1.41966   1.44557   1.49607   1.54504
 Alpha virt. eigenvalues --    1.67783   1.69835   1.71201   1.81613   1.82380
 Alpha virt. eigenvalues --    1.84777   1.93330   1.96084   1.99288   2.01853
 Alpha virt. eigenvalues --    2.05523   2.08356   2.08983   2.23081   2.25108
 Alpha virt. eigenvalues --    2.27631   2.29566   2.30162   2.33431   2.35358
 Alpha virt. eigenvalues --    2.37202   2.41230   2.43418   2.45430   2.47180
 Alpha virt. eigenvalues --    2.48319   2.50049   2.56822   2.57583   2.66652
 Alpha virt. eigenvalues --    2.71333   2.72196   2.76463   2.89632   2.95040
 Alpha virt. eigenvalues --    3.04653   3.06988   3.11433   3.18999   3.22350
 Alpha virt. eigenvalues --    3.37721   3.43211   3.80439   4.12593   4.15509
 Alpha virt. eigenvalues --    4.18950   4.41937   4.44190   4.75486
          Condensed to atoms (all electrons):
               1          2          3          4          5          6
     1  C    4.837517   0.582157  -0.043038  -0.043549  -0.041453   0.512336
     2  C    0.582157   4.792848   0.514055  -0.039632  -0.032597  -0.038122
     3  C   -0.043038   0.514055   4.812533   0.576648  -0.033107  -0.038907
     4  C   -0.043549  -0.039632   0.576648   4.877792   0.486505  -0.042705
     5  C   -0.041453  -0.032597  -0.033107   0.486505   4.834064   0.584653
     6  C    0.512336  -0.038122  -0.038907  -0.042705   0.584653   4.801521
     7  H    0.351117  -0.036222   0.004580   0.000455   0.004318  -0.037357
     8  H   -0.037841   0.004081   0.000632   0.005663  -0.047592   0.366461
     9  H    0.003930   0.000454   0.002992  -0.036054   0.364852  -0.034452
    10  H    0.000639   0.003583  -0.032388   0.351979  -0.041065   0.004655
    11  H    0.004795  -0.041580   0.355598  -0.034567   0.003286   0.000421
    12  H   -0.036634   0.364158  -0.038251   0.004043   0.000284   0.003971
               7          8          9         10         11         12
     1  C    0.351117  -0.037841   0.003930   0.000639   0.004795  -0.036634
     2  C   -0.036222   0.004081   0.000454   0.003583  -0.041580   0.364158
     3  C    0.004580   0.000632   0.002992  -0.032388   0.355598  -0.038251
     4  C    0.000455   0.005663  -0.036054   0.351979  -0.034567   0.004043
     5  C    0.004318  -0.047592   0.364852  -0.041065   0.003286   0.000284
     6  C   -0.037357   0.366461  -0.034452   0.004655   0.000421   0.003971
     7  H    0.650732  -0.006123  -0.000135   0.000007  -0.000168  -0.005673
     8  H   -0.006123   0.637379  -0.006858  -0.000246   0.000015  -0.000139
     9  H   -0.000135  -0.006858   0.609646  -0.003971  -0.000099   0.000012
    10  H    0.000007  -0.000246  -0.003971   0.643432  -0.005015  -0.000104
    11  H   -0.000168   0.000015  -0.000099  -0.005015   0.639827  -0.006055
    12  H   -0.005673  -0.000139   0.000012  -0.000104  -0.006055   0.619427
 Mulliken charges:
               1
     1  C   -0.089977
     2  C   -0.073182
     3  C   -0.081348
     4  C   -0.106579
     5  C   -0.082150
     6  C   -0.082475
     7  H    0.074468
     8  H    0.084567
     9  H    0.099682
    10  H    0.078494
    11  H    0.083542
    12  H    0.094960
 Sum of Mulliken charges =  -0.00000
 Mulliken charges with hydrogens summed into heavy atoms:
               1
     1  C   -0.015510
     2  C    0.021778
     3  C    0.002193
     4  C   -0.028085
     5  C    0.017531
     6  C    0.002092
 Electronic spatial extent (au):  <R**2>=            468.5770
 Charge=             -0.0000 electrons
 Dipole moment (field-independent basis, Debye):
    X=             -0.0275    Y=             -0.0208    Z=              0.4119  Tot=              0.4133
 Quadrupole moment (field-independent basis, Debye-Ang):
   XX=            -31.0305   YY=            -32.8432   ZZ=            -38.8257
   XY=             -0.2250   XZ=             -0.5490   YZ=             -0.1510
 Traceless Quadrupole moment (field-independent basis, Debye-Ang):
   XX=              3.2026   YY=              1.3899   ZZ=             -4.5925
   XY=             -0.2250   XZ=             -0.5490   YZ=             -0.1510
 Octapole moment (field-independent basis, Debye-Ang**2):
  XXX=              0.5838  YYY=             -1.1348  ZZZ=              0.5254  XYY=             -0.5568
  XXY=              1.1318  XXZ=              2.9291  XZZ=             -0.4164  YZZ=             -0.2498
  YYZ=              0.8782  XYZ=              0.2051
 Hexadecapole moment (field-independent basis, Debye-Ang**3):
 XXXX=           -285.4565 YYYY=           -276.3620 ZZZZ=            -41.5779 XXXY=             -1.0353
 XXXZ=             -3.6157 YYYX=             -1.1913 YYYZ=             -1.0565 ZZZX=             -0.6242
 ZZZY=             -0.1358 XXYY=            -93.7527 XXZZ=            -64.0166 YYZZ=            -61.3052
 XXYZ=             -0.0901 YYXZ=             -0.8064 ZZXY=              0.2206
 N-N= 2.008502030072D+02 E-N=-9.385443997035D+02  KE= 2.294048431190D+02
 1\1\GINC-DESKTOP-PRN5QE3\SP\RB3LYP TD-FC\6-31G(d,p)\C6H6\SHOHEI\10-Nov
 -2023\0\\# TD=(NStates=1) B3LYP/6-31G(d,p)\\ABSSPCT\\0,1\C,0,-0.208808
 3506,1.3392102819,0.024640578\C,0,1.0949169614,0.9352259868,-0.0170703
 208\C,0,1.3207388703,-0.4474056585,-0.0301066494\C,0,0.2674189467,-1.3
 452287838,0.065931327\C,0,-1.1520058303,-0.8977321799,-0.0297502361\C,
 0,-1.3241763124,0.4118321173,0.0413366244\H,0,-0.5101457383,2.50995263
 9,-0.0037685733\H,0,-2.3174390876,0.7945284366,-0.2225043432\H,0,-1.92
 85227426,-1.6622002515,-0.344828923\H,0,0.384099502,-2.5264228128,0.03
 97350827\H,0,2.4601732578,-0.7650844102,-0.0722851398\H,0,1.9483381772
 ,1.6829691422,-0.1220984248\\Version=EM64L-G16RevB.01\State=1-A\HF=-23
 2.2133244\RMSD=4.254e-09\PG=C01 [X(C6H6)]\\@


 A ROPE OVER THE TOP OF A FENCE HAS THE SAME LENGTH ON EACH SIDE.
 WEIGHS 1/3 POUND PER FOOT.  ON ONE END HANGS A MONKEY HOLDING A
 BANANA, AND ON THE OTHER END A WEIGHT EQUAL TO THE WEIGHT
 OF THE MONKEY.  THE BANANA WEIGHS TWO OUNCES PER INCH.
 THE ROPE IS AS LONG AS THE AGE OF THE MONKEY, 
 AND THE WEIGHT OF THE MONKEY (IN OUNCES) IS AS MUCH
 AS THE AGE OF THE MONKEY'S MOTHER.  THE COMBINED AGES OF MONKEY
 AND MOTHER ARE THIRTY YEARS.  HALF THE WEIGHT OF THE MONKEY,
  PLUS THE WEIGHT OF THE BANANA, IS ONE FOURTH AS MUCH AS THE WEIGHT
 OF THE WEIGHT AND THE ROPE.
 THE MONKEY'S MOTHER IS HALF AS OLD AS THE MONKEY WILL BE
 WHEN IT IS 3 TIMES AS OLD AS ITS MOTHER WAS WHEN
 SHE WAS HALF AS OLD AS THE MONKEY WILL BE WHEN IT IS
 AS OLD AS ITS MOTHER WILL BE WHEN SHE IS 4 TIMES AS
 OLD AS THE MONKEY WAS WHEN IT WAS TWICE AS OLD AS 
 ITS MOTHER WAS WHEN SHE WAS ONE THIRD AS OLD AS THE
 MONKEY WAS WHEN IT WAS AS OLD AS ITS MOTHER WAS WHEN 
 SHE WAS 3 TIMES AS OLD AS THE MONKEY WAS WHEN IT WAS AS OLD AS ITS
 MOTHER WAS WHEN SHE WAS 3 TIMES AS OLD AS THE MONKEY 
 WAS WHEN IT WAS ONE FOURTH WAS OLD AS IT IS NOW.

 HOW LONG IS THE BANANA?
 Job cpu time:       0 days  0 hours  3 minutes 56.9 seconds.
 Elapsed time:       0 days  0 hours  1 minutes  0.2 seconds.
 File lengths (MBytes):  RWF=    116 Int=      0 D2E=      0 Chk=      3 Scr=      1
 Normal termination of Gaussian 16 at Fri Nov 10 16:05:18 2023.
