 Entering Gaussian System, Link 0=g16
 Input=Geometry-71-.com
 Output=Geometry-71-.log
 Initial command:
 /home/shohei/gaussian/g16/l1.exe "/home/shohei/gaussian/scratch/Gau-29916.inp" -scrdir="/home/shohei/gaussian/scratch/"
 Entering Link 1 = /home/shohei/gaussian/g16/l1.exe PID=     29918.
  
 Copyright (c) 1988-2017, Gaussian, Inc.  All Rights Reserved.
  
 This is part of the Gaussian(R) 16 program.  It is based on
 the Gaussian(R) 09 system (copyright 2009, Gaussian, Inc.),
 the Gaussian(R) 03 system (copyright 2003, Gaussian, Inc.),
 the Gaussian(R) 98 system (copyright 1998, Gaussian, Inc.),
 the Gaussian(R) 94 system (copyright 1995, Gaussian, Inc.),
 the Gaussian 92(TM) system (copyright 1992, Gaussian, Inc.),
 the Gaussian 90(TM) system (copyright 1990, Gaussian, Inc.),
 the Gaussian 88(TM) system (copyright 1988, Gaussian, Inc.),
 the Gaussian 86(TM) system (copyright 1986, Carnegie Mellon
 University), and the Gaussian 82(TM) system (copyright 1983,
 Carnegie Mellon University). Gaussian is a federally registered
 trademark of Gaussian, Inc.
  
 This software contains proprietary and confidential information,
 including trade secrets, belonging to Gaussian, Inc.
  
 This software is provided under written license and may be
 used, copied, transmitted, or stored only in accord with that
 written license.
  
 The following legend is applicable only to US Government
 contracts under FAR:
  
                    RESTRICTED RIGHTS LEGEND
  
 Use, reproduction and disclosure by the US Government is
 subject to restrictions as set forth in subparagraphs (a)
 and (c) of the Commercial Computer Software - Restricted
 Rights clause in FAR 52.227-19.
  
 Gaussian, Inc.
 340 Quinnipiac St., Bldg. 40, Wallingford CT 06492
  
  
 ---------------------------------------------------------------
 Warning -- This program may not be used in any manner that
 competes with the business of Gaussian, Inc. or will provide
 assistance to any competitor of Gaussian, Inc.  The licensee
 of this program is prohibited from giving any competitor of
 Gaussian, Inc. access to this program.  By using this program,
 the user acknowledges that Gaussian, Inc. is engaged in the
 business of creating and licensing software in the field of
 computational chemistry and represents and warrants to the
 licensee that it is not a competitor of Gaussian, Inc. and that
 it will not use this program in any manner prohibited above.
 ---------------------------------------------------------------
  

 Cite this work as:
 Gaussian 16, Revision B.01,
 M. J. Frisch, G. W. Trucks, H. B. Schlegel, G. E. Scuseria, 
 M. A. Robb, J. R. Cheeseman, G. Scalmani, V. Barone, 
 G. A. Petersson, H. Nakatsuji, X. Li, M. Caricato, A. V. Marenich, 
 J. Bloino, B. G. Janesko, R. Gomperts, B. Mennucci, H. P. Hratchian, 
 J. V. Ortiz, A. F. Izmaylov, J. L. Sonnenberg, D. Williams-Young, 
 F. Ding, F. Lipparini, F. Egidi, J. Goings, B. Peng, A. Petrone, 
 T. Henderson, D. Ranasinghe, V. G. Zakrzewski, J. Gao, N. Rega, 
 G. Zheng, W. Liang, M. Hada, M. Ehara, K. Toyota, R. Fukuda, 
 J. Hasegawa, M. Ishida, T. Nakajima, Y. Honda, O. Kitao, H. Nakai, 
 T. Vreven, K. Throssell, J. A. Montgomery, Jr., J. E. Peralta, 
 F. Ogliaro, M. J. Bearpark, J. J. Heyd, E. N. Brothers, K. N. Kudin, 
 V. N. Staroverov, T. A. Keith, R. Kobayashi, J. Normand, 
 K. Raghavachari, A. P. Rendell, J. C. Burant, S. S. Iyengar, 
 J. Tomasi, M. Cossi, J. M. Millam, M. Klene, C. Adamo, R. Cammi, 
 J. W. Ochterski, R. L. Martin, K. Morokuma, O. Farkas, 
 J. B. Foresman, and D. J. Fox, Gaussian, Inc., Wallingford CT, 2016.
 
 ******************************************
 Gaussian 16:  EM64L-G16RevB.01 20-Dec-2017
                10-Nov-2023 
 ******************************************
 %nproc=4
 Will use up to    4 processors via shared memory.
 %Mem=2Gb
 ---------------------------------
 # TD=(NStates=1) B3LYP/6-31G(d,p)
 ---------------------------------
 1/38=1,172=1/1;
 2/12=2,17=6,18=5,40=1/2;
 3/5=1,6=6,7=101,11=9,25=1,30=1,74=-5/1,2,3,8;
 4//1;
 5/5=2,38=5/2;
 8/6=1,10=2,108=1/1;
 9/41=1,42=1,70=2/14;
 6/7=2,8=2,9=2,10=2/1;
 99/5=1,9=1/99;
 -------
 ABSSPCT
 -------
 Symbolic Z-matrix:
 Charge =  0 Multiplicity = 1
 6                    -0.26358   1.32953  -0.00003 
 6                     1.06401   0.90563   0.01366 
 6                     1.23753  -0.43799  -0.04121 
 6                     0.24063  -1.3485    0.0142 
 6                    -0.99612  -0.88285  -0.00466 
 6                    -1.29786   0.45436   0.00207 
 1                    -0.28478   2.47529   0.07419 
 1                    -2.34722   0.73979  -0.04808 
 1                    -1.78733  -1.55899  -0.05158 
 1                     0.52724  -2.47502   0.17934 
 1                     2.19944  -0.98528   0.03721 
 1                     1.85359   1.59971   0.02379 
 
                          Input orientation:                          
 ---------------------------------------------------------------------
 Center     Atomic      Atomic             Coordinates (Angstroms)
 Number     Number       Type             X           Y           Z
 ---------------------------------------------------------------------
      1          6           0       -0.263577    1.329530   -0.000028
      2          6           0        1.064013    0.905629    0.013662
      3          6           0        1.237529   -0.437987   -0.041212
      4          6           0        0.240633   -1.348500    0.014201
      5          6           0       -0.996117   -0.882851   -0.004663
      6          6           0       -1.297855    0.454357    0.002075
      7          1           0       -0.284777    2.475288    0.074193
      8          1           0       -2.347220    0.739793   -0.048080
      9          1           0       -1.787330   -1.558991   -0.051584
     10          1           0        0.527245   -2.475021    0.179338
     11          1           0        2.199440   -0.985280    0.037212
     12          1           0        1.853591    1.599706    0.023793
 ---------------------------------------------------------------------
                    Distance matrix (angstroms):
                    1          2          3          4          5
     1  C    0.000000
     2  C    1.393691   0.000000
     3  C    2.319295   1.355884   0.000000
     4  C    2.725119   2.399802   1.351261   0.000000
     5  C    2.330508   2.728211   2.277809   1.321641   0.000000
     6  C    1.354867   2.404621   2.688182   2.370103   1.370845
     7  H    1.148355   2.070441   3.289058   3.860182   3.433557
     8  H    2.166026   3.415820   3.773279   3.325933   2.111951
     9  H    3.266196   3.769452   3.225915   2.039918   1.041818
    10  H    3.890010   3.427005   2.168561   1.174081   2.211220
    11  H    3.380264   2.205739   1.109483   1.992330   3.197472
    12  H    2.134470   1.051322   2.129777   3.360601   3.779515
                    6          7          8          9         10
     6  C    0.000000
     7  H    2.261789   0.000000
     8  H    1.088648   2.698252   0.000000
     9  H    2.072688   4.306842   2.365988   0.000000
    10  H    3.455961   5.017568   4.318483   2.499938   0.000000
    11  H    3.782177   4.260074   4.863668   4.028816   2.244051
    12  H    3.353194   2.311234   4.288523   4.820721   4.287982
                   11         12
    11  H    0.000000
    12  H    2.608054   0.000000
 Stoichiometry    C6H6
 Framework group  C1[X(C6H6)]
 Deg. of freedom    30
 Full point group                 C1      NOp   1
 Largest Abelian subgroup         C1      NOp   1
 Largest concise Abelian subgroup C1      NOp   1
                         Standard orientation:                         
 ---------------------------------------------------------------------
 Center     Atomic      Atomic             Coordinates (Angstroms)
 Number     Number       Type             X           Y           Z
 ---------------------------------------------------------------------
      1          6           0        1.324029    0.300381    0.001254
      2          6           0        0.935409   -1.038014    0.008227
      3          6           0       -0.403022   -1.246797   -0.050392
      4          6           0       -1.339732   -0.274610    0.007329
      5          6           0       -0.906962    0.974106   -0.005119
      6          6           0        0.421768    1.311108    0.005907
      7          1           0        2.468664    0.351581    0.078117
      8          1           0        0.679417    2.367872   -0.039048
      9          1           0       -1.603719    1.747340   -0.050104
     10          1           0       -2.458614   -0.591670    0.168710
     11          1           0       -0.924812   -2.223196    0.022630
     12          1           0        1.650130   -1.808976    0.016469
 ---------------------------------------------------------------------
 Rotational constants (GHZ):           6.0795277           5.8757356           2.9904320
 Standard basis: 6-31G(d,p) (6D, 7F)
 There are   120 symmetry adapted cartesian basis functions of A   symmetry.
 There are   120 symmetry adapted basis functions of A   symmetry.
   120 basis functions,   210 primitive gaussians,   120 cartesian basis functions
    21 alpha electrons       21 beta electrons
       nuclear repulsion energy       207.8935032574 Hartrees.
 NAtoms=   12 NActive=   12 NUniq=   12 SFac= 1.00D+00 NAtFMM=   60 NAOKFM=F Big=F
 Integral buffers will be    131072 words long.
 Regular integral format.
 Two-electron integral symmetry is turned on.
 One-electron integrals computed using PRISM.
 NBasis=   120 RedAO= T EigKep=  4.84D-04  NBF=   120
 NBsUse=   120 1.00D-06 EigRej= -1.00D+00 NBFU=   120
 ExpMin= 1.61D-01 ExpMax= 3.05D+03 ExpMxC= 4.57D+02 IAcc=3 IRadAn=         5 AccDes= 0.00D+00
 Harris functional with IExCor=  402 and IRadAn=       5 diagonalized for initial guess.
 HarFok:  IExCor=  402 AccDes= 0.00D+00 IRadAn=         5 IDoV= 1 UseB2=F ITyADJ=14
 ICtDFT=  3500011 ScaDFX=  1.000000  1.000000  1.000000  1.000000
 FoFCou: FMM=F IPFlag=           0 FMFlag=      100000 FMFlg1=           0
         NFxFlg=           0 DoJE=T BraDBF=F KetDBF=T FulRan=T
         wScrn=  0.000000 ICntrl=       500 IOpCl=  0 I1Cent=   200000004 NGrid=           0
         NMat0=    1 NMatS0=      1 NMatT0=    0 NMatD0=    1 NMtDS0=    0 NMtDT0=    0
 Petite list used in FoFCou.
 Keep R1 ints in memory in canonical form, NReq=30147728.
 Requested convergence on RMS density matrix=1.00D-08 within 128 cycles.
 Requested convergence on MAX density matrix=1.00D-06.
 Requested convergence on             energy=1.00D-06.
 No special actions if energy rises.
 Integral accuracy reduced to 1.0D-05 until final iterations.
 Initial convergence to 1.0D-05 achieved.  Increase integral accuracy.
 SCF Done:  E(RB3LYP) =  -232.223577163     A.U. after   13 cycles
            NFock= 13  Conv=0.19D-08     -V/T= 2.0076
 DoSCS=F DFT=T ScalE2(SS,OS)=  1.000000  1.000000
 ExpMin= 1.61D-01 ExpMax= 3.05D+03 ExpMxC= 4.57D+02 IAcc=3 IRadAn=         5 AccDes= 0.00D+00
 HarFok:  IExCor=  205 AccDes= 0.00D+00 IRadAn=         5 IDoV=-2 UseB2=F ITyADJ=14
 ICtDFT= 12500011 ScaDFX=  1.000000  1.000000  1.000000  1.000000
 Range of M.O.s used for correlation:     7   120
 NBasis=   120 NAE=    21 NBE=    21 NFC=     6 NFV=     0
 NROrb=    114 NOA=    15 NOB=    15 NVA=    99 NVB=    99
 Keep R1, R2, and R3 ints in memory in canonical form, NReq=84032236.
 Orbital symmetries:
       Occupied  (A) (A) (A) (A) (A) (A) (A) (A) (A) (A) (A) (A)
                 (A) (A) (A) (A) (A) (A) (A) (A) (A)
       Virtual   (A) (A) (A) (A) (A) (A) (A) (A) (A) (A) (A) (A)
                 (A) (A) (A) (A) (A) (A) (A) (A) (A) (A) (A) (A)
                 (A) (A) (A) (A) (A) (A) (A) (A) (A) (A) (A) (A)
                 (A) (A) (A) (A) (A) (A) (A) (A) (A) (A) (A) (A)
                 (A) (A) (A) (A) (A) (A) (A) (A) (A) (A) (A) (A)
                 (A) (A) (A) (A) (A) (A) (A) (A) (A) (A) (A) (A)
                 (A) (A) (A) (A) (A) (A) (A) (A) (A) (A) (A) (A)
                 (A) (A) (A) (A) (A) (A) (A) (A) (A) (A) (A) (A)
                 (A) (A) (A)
     4 initial guesses have been made.
 Convergence on wavefunction:    0.001000000000000
 Iteration     1 Dimension     4 NMult     0 NNew      4
 CISAX will form     4 AO SS matrices at one time.
 New state      1 was old state      2
 Iteration     2 Dimension     6 NMult     4 NNew      2
 Iteration     3 Dimension     8 NMult     6 NNew      2
 Iteration     4 Dimension    10 NMult     8 NNew      2
 Iteration     5 Dimension    12 NMult    10 NNew      2
 ***********************************************************************
 Excited states from <AA,BB:AA,BB> singles matrix:
 ***********************************************************************
 
 Ground to excited state transition densities written to RWF  633
 Ground to excited state transition electric dipole moments (Au):
       state          X           Y           Z        Dip. S.      Osc.
         1         0.0259      0.0044      0.0018      0.0007      0.0001
 Ground to excited state transition velocity dipole moments (Au):
       state          X           Y           Z        Dip. S.      Osc.
         1        -0.0064     -0.0014     -0.0004      0.0000      0.0001
 Ground to excited state transition magnetic dipole moments (Au):
       state          X           Y           Z
         1        -0.0114     -0.0114      0.0667
 Ground to excited state transition velocity quadrupole moments (Au):
       state          XX          YY          ZZ          XY          XZ          YZ
         1        -0.0069     -0.0104      0.0062      0.0015      0.0047     -0.0112
 <0|del|b> * <b|rxdel|0> + <0|del|b> * <b|delr+rdel|0>
 Rotatory Strengths (R) in cgs (10**-40 erg-esu-cm/Gauss)
       state          XX          YY          ZZ    R(velocity)    E-M Angle
         1        -0.0050      0.1982      0.0171      0.0701       90.00
 1/2[<0|r|b>*<b|rxdel|0> + (<0|rxdel|b>*<b|r|0>)*]
 Rotatory Strengths (R) in cgs (10**-40 erg-esu-cm/Gauss)
       state          XX          YY          ZZ     R(length)
         1         0.2080      0.0359     -0.0851      0.0529
  1/2[<0|del|b>*<b|r|0> + (<0|r|b>*<b|del|0>)*] (Au)
       state          X           Y           Z        Dip. S.   Osc.(frdel)
         1        -0.0002     -0.0000     -0.0000      0.0002      0.0001

 Excitation energies and oscillator strengths:
 
 Excited State   1:      Singlet-A      5.8623 eV  211.50 nm  f=0.0001  <S**2>=0.000
      20 -> 22         0.46316
      20 -> 23         0.18905
      21 -> 22        -0.20244
      21 -> 23         0.45630
 This state for optimization and/or second-order correction.
 Total Energy, E(TD-HF/TD-DFT) =  -232.008143120    
 Copying the excited state density for this state as the 1-particle RhoCI density.
 SavETr:  write IOETrn=   770 NScale= 10 NData=  16 NLR=1 NState=    1 LETran=      28.

 **********************************************************************

            Population analysis using the SCF Density.

 **********************************************************************

 Orbital symmetries:
       Occupied  (A) (A) (A) (A) (A) (A) (A) (A) (A) (A) (A) (A)
                 (A) (A) (A) (A) (A) (A) (A) (A) (A)
       Virtual   (A) (A) (A) (A) (A) (A) (A) (A) (A) (A) (A) (A)
                 (A) (A) (A) (A) (A) (A) (A) (A) (A) (A) (A) (A)
                 (A) (A) (A) (A) (A) (A) (A) (A) (A) (A) (A) (A)
                 (A) (A) (A) (A) (A) (A) (A) (A) (A) (A) (A) (A)
                 (A) (A) (A) (A) (A) (A) (A) (A) (A) (A) (A) (A)
                 (A) (A) (A) (A) (A) (A) (A) (A) (A) (A) (A) (A)
                 (A) (A) (A) (A) (A) (A) (A) (A) (A) (A) (A) (A)
                 (A) (A) (A) (A) (A) (A) (A) (A) (A) (A) (A) (A)
                 (A) (A) (A)
 The electronic state is 1-A.
 Alpha  occ. eigenvalues --  -10.18883 -10.18261 -10.18027 -10.18004 -10.17725
 Alpha  occ. eigenvalues --  -10.17151  -0.86826  -0.75201  -0.74788  -0.60889
 Alpha  occ. eigenvalues --   -0.59386  -0.52597  -0.45358  -0.44621  -0.41896
 Alpha  occ. eigenvalues --   -0.41246  -0.37543  -0.33764  -0.32437  -0.25380
 Alpha  occ. eigenvalues --   -0.25197
 Alpha virt. eigenvalues --    0.00785   0.01091   0.07946   0.12313   0.14583
 Alpha virt. eigenvalues --    0.17610   0.18208   0.19203   0.20097   0.29666
 Alpha virt. eigenvalues --    0.31365   0.34220   0.35276   0.44867   0.52124
 Alpha virt. eigenvalues --    0.53480   0.57450   0.57812   0.59279   0.59948
 Alpha virt. eigenvalues --    0.61126   0.61860   0.63413   0.64331   0.65170
 Alpha virt. eigenvalues --    0.66952   0.67072   0.74696   0.79129   0.80179
 Alpha virt. eigenvalues --    0.82358   0.83498   0.85496   0.91990   0.94639
 Alpha virt. eigenvalues --    0.95205   0.98753   1.06477   1.08195   1.14669
 Alpha virt. eigenvalues --    1.17095   1.20527   1.27326   1.28113   1.35075
 Alpha virt. eigenvalues --    1.39855   1.42820   1.45897   1.48956   1.50680
 Alpha virt. eigenvalues --    1.66911   1.79881   1.81998   1.84231   1.89191
 Alpha virt. eigenvalues --    1.94970   1.99407   2.00671   2.02664   2.04813
 Alpha virt. eigenvalues --    2.07353   2.10717   2.13477   2.29755   2.30510
 Alpha virt. eigenvalues --    2.32760   2.35405   2.36771   2.39078   2.41557
 Alpha virt. eigenvalues --    2.45171   2.46032   2.48038   2.49455   2.51830
 Alpha virt. eigenvalues --    2.53938   2.56972   2.59395   2.64347   2.72294
 Alpha virt. eigenvalues --    2.80474   2.83145   2.84709   2.99581   3.08309
 Alpha virt. eigenvalues --    3.13833   3.21465   3.25574   3.31220   3.42703
 Alpha virt. eigenvalues --    3.50308   3.62163   4.00407   4.16926   4.17080
 Alpha virt. eigenvalues --    4.18579   4.46029   4.47733   4.87875
          Condensed to atoms (all electrons):
               1          2          3          4          5          6
     1  C    4.831731   0.532326  -0.020028  -0.055620  -0.020431   0.557740
     2  C    0.532326   4.801716   0.575266  -0.047062  -0.047265  -0.046769
     3  C   -0.020028   0.575266   4.779049   0.550697  -0.031886  -0.055030
     4  C   -0.055620  -0.047062   0.550697   4.804193   0.581704  -0.040858
     5  C   -0.020431  -0.047265  -0.031886   0.581704   4.746439   0.557785
     6  C    0.557740  -0.046769  -0.055030  -0.040858   0.557785   4.795153
     7  H    0.355003  -0.048315   0.005826   0.001097   0.004225  -0.035272
     8  H   -0.044257   0.004456   0.000332   0.006201  -0.044077   0.373710
     9  H    0.006875   0.001213   0.008336  -0.050610   0.366990  -0.048960
    10  H    0.000394   0.004595  -0.038840   0.360507  -0.035727   0.004146
    11  H    0.005640  -0.043285   0.354121  -0.048774   0.007973   0.001473
    12  H   -0.044544   0.377160  -0.042889   0.005280   0.000348   0.005443
               7          8          9         10         11         12
     1  C    0.355003  -0.044257   0.006875   0.000394   0.005640  -0.044544
     2  C   -0.048315   0.004456   0.001213   0.004595  -0.043285   0.377160
     3  C    0.005826   0.000332   0.008336  -0.038840   0.354121  -0.042889
     4  C    0.001097   0.006201  -0.050610   0.360507  -0.048774   0.005280
     5  C    0.004225  -0.044077   0.366990  -0.035727   0.007973   0.000348
     6  C   -0.035272   0.373710  -0.048960   0.004146   0.001473   0.005443
     7  H    0.655860  -0.004994  -0.000194   0.000019  -0.000258  -0.008890
     8  H   -0.004994   0.632316  -0.009882  -0.000177   0.000025  -0.000177
     9  H   -0.000194  -0.009882   0.660123  -0.007186  -0.000502   0.000025
    10  H    0.000019  -0.000177  -0.007186   0.641588  -0.012267  -0.000174
    11  H   -0.000258   0.000025  -0.000502  -0.012267   0.673677  -0.006002
    12  H   -0.008890  -0.000177   0.000025  -0.000174  -0.006002   0.626696
 Mulliken charges:
               1
     1  C   -0.104828
     2  C   -0.064035
     3  C   -0.084952
     4  C   -0.066756
     5  C   -0.086077
     6  C   -0.068562
     7  H    0.075892
     8  H    0.086524
     9  H    0.073771
    10  H    0.083121
    11  H    0.068179
    12  H    0.087724
 Sum of Mulliken charges =  -0.00000
 Mulliken charges with hydrogens summed into heavy atoms:
               1
     1  C   -0.028936
     2  C    0.023689
     3  C   -0.016773
     4  C    0.016364
     5  C   -0.012306
     6  C    0.017962
 Electronic spatial extent (au):  <R**2>=            441.6399
 Charge=              0.0000 electrons
 Dipole moment (field-independent basis, Debye):
    X=             -0.0444    Y=              0.0034    Z=              0.1010  Tot=              0.1104
 Quadrupole moment (field-independent basis, Debye-Ang):
   XX=            -31.6567   YY=            -32.1462   ZZ=            -38.0665
   XY=             -0.3369   XZ=             -0.1316   YZ=             -0.2884
 Traceless Quadrupole moment (field-independent basis, Debye-Ang):
   XX=              2.2997   YY=              1.8103   ZZ=             -4.1100
   XY=             -0.3369   XZ=             -0.1316   YZ=             -0.2884
 Octapole moment (field-independent basis, Debye-Ang**2):
  XXX=             -0.2273  YYY=              2.5743  ZZZ=              0.0743  XYY=              0.0147
  XXY=             -2.5003  XXZ=              1.0405  XZZ=             -0.2088  YZZ=              0.0839
  YYZ=             -0.0474  XYZ=              0.3104
 Hexadecapole moment (field-independent basis, Debye-Ang**3):
 XXXX=           -267.9037 YYYY=           -260.3373 ZZZZ=            -39.2731 XXXY=             -2.3586
 XXXZ=             -0.9931 YYYX=             -1.5286 YYYZ=             -1.4018 ZZZX=             -0.0589
 ZZZY=             -0.2639 XXYY=            -87.6000 XXZZ=            -59.2247 YYZZ=            -56.9228
 XXYZ=             -0.8364 YYXZ=             -0.1599 ZZXY=             -0.4805
 N-N= 2.078935032574D+02 E-N=-9.535162155960D+02  KE= 2.304809639670D+02
 1\1\GINC-DESKTOP-PRN5QE3\SP\RB3LYP TD-FC\6-31G(d,p)\C6H6\SHOHEI\10-Nov
 -2023\0\\# TD=(NStates=1) B3LYP/6-31G(d,p)\\ABSSPCT\\0,1\C,0,-0.263576
 7531,1.3295300266,-0.0000278632\C,0,1.0640132138,0.9056291714,0.013662
 0603\C,0,1.2375287688,-0.437986638,-0.0412124138\C,0,0.2406332775,-1.3
 484996899,0.0142011142\C,0,-0.9961170025,-0.8828508632,-0.0046627221\C
 ,0,-1.2978552491,0.4543569923,0.0020748076\H,0,-0.2847774606,2.4752875
 74,0.074193429\H,0,-2.3472199848,0.7397928049,-0.0480797832\H,0,-1.787
 3295228,-1.5589910803,-0.0515836165\H,0,0.5272446814,-2.4750210473,0.1
 793380372\H,0,2.1994396764,-0.9852799824,0.0372120083\H,0,1.8535912296
 ,1.5997059341,0.0237934497\\Version=EM64L-G16RevB.01\State=1-A\HF=-232
 .2235772\RMSD=1.896e-09\PG=C01 [X(C6H6)]\\@


 THE REASON MAN'S BEST FRIEND IS A DOG IS BECAUSE
 HE WAGS HIS TAIL INSTEAD OF HIS TONGUE.
 Job cpu time:       0 days  0 hours  3 minutes  8.8 seconds.
 Elapsed time:       0 days  0 hours  0 minutes 47.8 seconds.
 File lengths (MBytes):  RWF=    116 Int=      0 D2E=      0 Chk=      3 Scr=      1
 Normal termination of Gaussian 16 at Fri Nov 10 17:05:28 2023.
