 Entering Gaussian System, Link 0=g16
 Input=Geometry-70-.com
 Output=Geometry-70-.log
 Initial command:
 /home/shohei/gaussian/g16/l1.exe "/home/shohei/gaussian/scratch/Gau-29832.inp" -scrdir="/home/shohei/gaussian/scratch/"
 Entering Link 1 = /home/shohei/gaussian/g16/l1.exe PID=     29834.
  
 Copyright (c) 1988-2017, Gaussian, Inc.  All Rights Reserved.
  
 This is part of the Gaussian(R) 16 program.  It is based on
 the Gaussian(R) 09 system (copyright 2009, Gaussian, Inc.),
 the Gaussian(R) 03 system (copyright 2003, Gaussian, Inc.),
 the Gaussian(R) 98 system (copyright 1998, Gaussian, Inc.),
 the Gaussian(R) 94 system (copyright 1995, Gaussian, Inc.),
 the Gaussian 92(TM) system (copyright 1992, Gaussian, Inc.),
 the Gaussian 90(TM) system (copyright 1990, Gaussian, Inc.),
 the Gaussian 88(TM) system (copyright 1988, Gaussian, Inc.),
 the Gaussian 86(TM) system (copyright 1986, Carnegie Mellon
 University), and the Gaussian 82(TM) system (copyright 1983,
 Carnegie Mellon University). Gaussian is a federally registered
 trademark of Gaussian, Inc.
  
 This software contains proprietary and confidential information,
 including trade secrets, belonging to Gaussian, Inc.
  
 This software is provided under written license and may be
 used, copied, transmitted, or stored only in accord with that
 written license.
  
 The following legend is applicable only to US Government
 contracts under FAR:
  
                    RESTRICTED RIGHTS LEGEND
  
 Use, reproduction and disclosure by the US Government is
 subject to restrictions as set forth in subparagraphs (a)
 and (c) of the Commercial Computer Software - Restricted
 Rights clause in FAR 52.227-19.
  
 Gaussian, Inc.
 340 Quinnipiac St., Bldg. 40, Wallingford CT 06492
  
  
 ---------------------------------------------------------------
 Warning -- This program may not be used in any manner that
 competes with the business of Gaussian, Inc. or will provide
 assistance to any competitor of Gaussian, Inc.  The licensee
 of this program is prohibited from giving any competitor of
 Gaussian, Inc. access to this program.  By using this program,
 the user acknowledges that Gaussian, Inc. is engaged in the
 business of creating and licensing software in the field of
 computational chemistry and represents and warrants to the
 licensee that it is not a competitor of Gaussian, Inc. and that
 it will not use this program in any manner prohibited above.
 ---------------------------------------------------------------
  

 Cite this work as:
 Gaussian 16, Revision B.01,
 M. J. Frisch, G. W. Trucks, H. B. Schlegel, G. E. Scuseria, 
 M. A. Robb, J. R. Cheeseman, G. Scalmani, V. Barone, 
 G. A. Petersson, H. Nakatsuji, X. Li, M. Caricato, A. V. Marenich, 
 J. Bloino, B. G. Janesko, R. Gomperts, B. Mennucci, H. P. Hratchian, 
 J. V. Ortiz, A. F. Izmaylov, J. L. Sonnenberg, D. Williams-Young, 
 F. Ding, F. Lipparini, F. Egidi, J. Goings, B. Peng, A. Petrone, 
 T. Henderson, D. Ranasinghe, V. G. Zakrzewski, J. Gao, N. Rega, 
 G. Zheng, W. Liang, M. Hada, M. Ehara, K. Toyota, R. Fukuda, 
 J. Hasegawa, M. Ishida, T. Nakajima, Y. Honda, O. Kitao, H. Nakai, 
 T. Vreven, K. Throssell, J. A. Montgomery, Jr., J. E. Peralta, 
 F. Ogliaro, M. J. Bearpark, J. J. Heyd, E. N. Brothers, K. N. Kudin, 
 V. N. Staroverov, T. A. Keith, R. Kobayashi, J. Normand, 
 K. Raghavachari, A. P. Rendell, J. C. Burant, S. S. Iyengar, 
 J. Tomasi, M. Cossi, J. M. Millam, M. Klene, C. Adamo, R. Cammi, 
 J. W. Ochterski, R. L. Martin, K. Morokuma, O. Farkas, 
 J. B. Foresman, and D. J. Fox, Gaussian, Inc., Wallingford CT, 2016.
 
 ******************************************
 Gaussian 16:  EM64L-G16RevB.01 20-Dec-2017
                10-Nov-2023 
 ******************************************
 %nproc=4
 Will use up to    4 processors via shared memory.
 %Mem=2Gb
 ---------------------------------
 # TD=(NStates=1) B3LYP/6-31G(d,p)
 ---------------------------------
 1/38=1,172=1/1;
 2/12=2,17=6,18=5,40=1/2;
 3/5=1,6=6,7=101,11=9,25=1,30=1,74=-5/1,2,3,8;
 4//1;
 5/5=2,38=5/2;
 8/6=1,10=2,108=1/1;
 9/41=1,42=1,70=2/14;
 6/7=2,8=2,9=2,10=2/1;
 99/5=1,9=1/99;
 -------
 ABSSPCT
 -------
 Symbolic Z-matrix:
 Charge =  0 Multiplicity = 1
 6                    -0.25121   1.29911   0.09432 
 6                     1.03246   0.89419  -0.12055 
 6                     1.30321  -0.46128  -0.00258 
 6                     0.28119  -1.32085   0.0261 
 6                    -1.02683  -0.85034  -0.04598 
 6                    -1.32112   0.44835   0.0154 
 1                    -0.48574   2.24779  -0.10749 
 1                    -2.2585    0.81508   0.11213 
 1                    -2.05026  -1.4084   -0.24965 
 1                     0.34988  -2.48469   0.25598 
 1                     2.32075  -0.91932   0.31146 
 1                     1.89169   1.72676   0.14376 
 
                          Input orientation:                          
 ---------------------------------------------------------------------
 Center     Atomic      Atomic             Coordinates (Angstroms)
 Number     Number       Type             X           Y           Z
 ---------------------------------------------------------------------
      1          6           0       -0.251212    1.299107    0.094324
      2          6           0        1.032456    0.894186   -0.120549
      3          6           0        1.303215   -0.461277   -0.002584
      4          6           0        0.281186   -1.320849    0.026100
      5          6           0       -1.026829   -0.850340   -0.045982
      6          6           0       -1.321117    0.448352    0.015401
      7          1           0       -0.485741    2.247787   -0.107487
      8          1           0       -2.258501    0.815075    0.112135
      9          1           0       -2.050256   -1.408401   -0.249646
     10          1           0        0.349885   -2.484691    0.255976
     11          1           0        2.320748   -0.919322    0.311462
     12          1           0        1.891687    1.726761    0.143762
 ---------------------------------------------------------------------
                    Distance matrix (angstroms):
                    1          2          3          4          5
     1  C    0.000000
     2  C    1.363060   0.000000
     3  C    2.350443   1.387266   0.000000
     4  C    2.674373   2.343565   1.335750   0.000000
     5  C    2.289408   2.699924   2.362701   1.391933   0.000000
     6  C    1.369200   2.399283   2.777565   2.386957   1.333033
     7  H    0.997860   2.034042   3.248136   3.652559   3.145624
     8  H    2.064901   3.300121   3.785242   3.319576   2.077409
     9  H    3.268864   3.849894   3.493401   2.349324   1.183349
    10  H    3.834654   3.467634   2.251643   1.188314   2.158153
    11  H    3.403462   2.266085   1.159226   2.098206   3.367313
    12  H    2.185714   1.225283   2.270512   3.448983   3.898100
                    6          7          8          9         10
     6  C    0.000000
     7  H    1.987692   0.000000
     8  H    1.011203   2.289886   0.000000
     9  H    2.012318   3.979400   2.262321   0.000000
    10  H    3.384209   4.819411   4.208661   2.678569   0.000000
    11  H    3.901457   4.252349   4.900754   4.433928   2.517491
    12  H    3.460190   2.446784   4.249263   5.052022   4.486209
                   11         12
    11  H    0.000000
    12  H    2.685884   0.000000
 Stoichiometry    C6H6
 Framework group  C1[X(C6H6)]
 Deg. of freedom    30
 Full point group                 C1      NOp   1
 Largest Abelian subgroup         C1      NOp   1
 Largest concise Abelian subgroup C1      NOp   1
                         Standard orientation:                         
 ---------------------------------------------------------------------
 Center     Atomic      Atomic             Coordinates (Angstroms)
 Number     Number       Type             X           Y           Z
 ---------------------------------------------------------------------
      1          6           0        0.397671   -1.259782    0.099195
      2          6           0       -0.921571   -1.009427   -0.135021
      3          6           0       -1.351174    0.305372   -0.028940
      4          6           0       -0.437610    1.279164    0.007913
      5          6           0        0.917462    0.965231   -0.044074
      6          6           0        1.361295   -0.289611    0.029136
      7          1           0        0.744702   -2.175253   -0.093693
      8          1           0        2.333824   -0.543245    0.140437
      9          1           0        1.871012    1.638710   -0.237678
     10          1           0       -0.645618    2.427912    0.229725
     11          1           0       -2.419673    0.642148    0.268882
     12          1           0       -1.680686   -1.935954    0.123066
 ---------------------------------------------------------------------
 Rotational constants (GHZ):           6.1117189           5.7429108           2.9813664
 Standard basis: 6-31G(d,p) (6D, 7F)
 There are   120 symmetry adapted cartesian basis functions of A   symmetry.
 There are   120 symmetry adapted basis functions of A   symmetry.
   120 basis functions,   210 primitive gaussians,   120 cartesian basis functions
    21 alpha electrons       21 beta electrons
       nuclear repulsion energy       206.9414784152 Hartrees.
 NAtoms=   12 NActive=   12 NUniq=   12 SFac= 1.00D+00 NAtFMM=   60 NAOKFM=F Big=F
 Integral buffers will be    131072 words long.
 Regular integral format.
 Two-electron integral symmetry is turned on.
 One-electron integrals computed using PRISM.
 NBasis=   120 RedAO= T EigKep=  8.10D-04  NBF=   120
 NBsUse=   120 1.00D-06 EigRej= -1.00D+00 NBFU=   120
 ExpMin= 1.61D-01 ExpMax= 3.05D+03 ExpMxC= 4.57D+02 IAcc=3 IRadAn=         5 AccDes= 0.00D+00
 Harris functional with IExCor=  402 and IRadAn=       5 diagonalized for initial guess.
 HarFok:  IExCor=  402 AccDes= 0.00D+00 IRadAn=         5 IDoV= 1 UseB2=F ITyADJ=14
 ICtDFT=  3500011 ScaDFX=  1.000000  1.000000  1.000000  1.000000
 FoFCou: FMM=F IPFlag=           0 FMFlag=      100000 FMFlg1=           0
         NFxFlg=           0 DoJE=T BraDBF=F KetDBF=T FulRan=T
         wScrn=  0.000000 ICntrl=       500 IOpCl=  0 I1Cent=   200000004 NGrid=           0
         NMat0=    1 NMatS0=      1 NMatT0=    0 NMatD0=    1 NMtDS0=    0 NMtDT0=    0
 Petite list used in FoFCou.
 Keep R1 ints in memory in canonical form, NReq=30147728.
 Requested convergence on RMS density matrix=1.00D-08 within 128 cycles.
 Requested convergence on MAX density matrix=1.00D-06.
 Requested convergence on             energy=1.00D-06.
 No special actions if energy rises.
 Integral accuracy reduced to 1.0D-05 until final iterations.
 Initial convergence to 1.0D-05 achieved.  Increase integral accuracy.
 SCF Done:  E(RB3LYP) =  -232.183191247     A.U. after   13 cycles
            NFock= 13  Conv=0.64D-08     -V/T= 2.0082
 DoSCS=F DFT=T ScalE2(SS,OS)=  1.000000  1.000000
 ExpMin= 1.61D-01 ExpMax= 3.05D+03 ExpMxC= 4.57D+02 IAcc=3 IRadAn=         5 AccDes= 0.00D+00
 HarFok:  IExCor=  205 AccDes= 0.00D+00 IRadAn=         5 IDoV=-2 UseB2=F ITyADJ=14
 ICtDFT= 12500011 ScaDFX=  1.000000  1.000000  1.000000  1.000000
 Range of M.O.s used for correlation:     7   120
 NBasis=   120 NAE=    21 NBE=    21 NFC=     6 NFV=     0
 NROrb=    114 NOA=    15 NOB=    15 NVA=    99 NVB=    99
 Keep R1, R2, and R3 ints in memory in canonical form, NReq=84032236.
 Orbital symmetries:
       Occupied  (A) (A) (A) (A) (A) (A) (A) (A) (A) (A) (A) (A)
                 (A) (A) (A) (A) (A) (A) (A) (A) (A)
       Virtual   (A) (A) (A) (A) (A) (A) (A) (A) (A) (A) (A) (A)
                 (A) (A) (A) (A) (A) (A) (A) (A) (A) (A) (A) (A)
                 (A) (A) (A) (A) (A) (A) (A) (A) (A) (A) (A) (A)
                 (A) (A) (A) (A) (A) (A) (A) (A) (A) (A) (A) (A)
                 (A) (A) (A) (A) (A) (A) (A) (A) (A) (A) (A) (A)
                 (A) (A) (A) (A) (A) (A) (A) (A) (A) (A) (A) (A)
                 (A) (A) (A) (A) (A) (A) (A) (A) (A) (A) (A) (A)
                 (A) (A) (A) (A) (A) (A) (A) (A) (A) (A) (A) (A)
                 (A) (A) (A)
     4 initial guesses have been made.
 Convergence on wavefunction:    0.001000000000000
 Iteration     1 Dimension     4 NMult     0 NNew      4
 CISAX will form     4 AO SS matrices at one time.
 New state      1 was old state      2
 Iteration     2 Dimension     6 NMult     4 NNew      2
 Iteration     3 Dimension     8 NMult     6 NNew      2
 Iteration     4 Dimension    10 NMult     8 NNew      2
 Iteration     5 Dimension    12 NMult    10 NNew      2
 ***********************************************************************
 Excited states from <AA,BB:AA,BB> singles matrix:
 ***********************************************************************
 
 Ground to excited state transition densities written to RWF  633
 Ground to excited state transition electric dipole moments (Au):
       state          X           Y           Z        Dip. S.      Osc.
         1        -0.0608     -0.0322     -0.0193      0.0051      0.0007
 Ground to excited state transition velocity dipole moments (Au):
       state          X           Y           Z        Dip. S.      Osc.
         1         0.0117      0.0087      0.0040      0.0002      0.0007
 Ground to excited state transition magnetic dipole moments (Au):
       state          X           Y           Z
         1        -0.0175     -0.0115     -0.0157
 Ground to excited state transition velocity quadrupole moments (Au):
       state          XX          YY          ZZ          XY          XZ          YZ
         1        -0.0128      0.0175     -0.0021     -0.0007      0.0123     -0.0260
 <0|del|b> * <b|rxdel|0> + <0|del|b> * <b|delr+rdel|0>
 Rotatory Strengths (R) in cgs (10**-40 erg-esu-cm/Gauss)
       state          XX          YY          ZZ    R(velocity)    E-M Angle
         1        -0.4673     -0.9731      0.1812     -0.4197      158.41
 1/2[<0|r|b>*<b|rxdel|0> + (<0|rxdel|b>*<b|r|0>)*]
 Rotatory Strengths (R) in cgs (10**-40 erg-esu-cm/Gauss)
       state          XX          YY          ZZ     R(length)
         1        -0.7534     -0.2618     -0.2135     -0.4096
  1/2[<0|del|b>*<b|r|0> + (<0|r|b>*<b|del|0>)*] (Au)
       state          X           Y           Z        Dip. S.   Osc.(frdel)
         1        -0.0007     -0.0003     -0.0001      0.0011      0.0007

 Excitation energies and oscillator strengths:
 
 Excited State   1:      Singlet-A      5.6044 eV  221.23 nm  f=0.0007  <S**2>=0.000
      20 -> 22         0.46449
      20 -> 23         0.10901
      21 -> 22        -0.16932
      21 -> 23         0.49292
 This state for optimization and/or second-order correction.
 Total Energy, E(TD-HF/TD-DFT) =  -231.977234705    
 Copying the excited state density for this state as the 1-particle RhoCI density.
 SavETr:  write IOETrn=   770 NScale= 10 NData=  16 NLR=1 NState=    1 LETran=      28.

 **********************************************************************

            Population analysis using the SCF Density.

 **********************************************************************

 Orbital symmetries:
       Occupied  (A) (A) (A) (A) (A) (A) (A) (A) (A) (A) (A) (A)
                 (A) (A) (A) (A) (A) (A) (A) (A) (A)
       Virtual   (A) (A) (A) (A) (A) (A) (A) (A) (A) (A) (A) (A)
                 (A) (A) (A) (A) (A) (A) (A) (A) (A) (A) (A) (A)
                 (A) (A) (A) (A) (A) (A) (A) (A) (A) (A) (A) (A)
                 (A) (A) (A) (A) (A) (A) (A) (A) (A) (A) (A) (A)
                 (A) (A) (A) (A) (A) (A) (A) (A) (A) (A) (A) (A)
                 (A) (A) (A) (A) (A) (A) (A) (A) (A) (A) (A) (A)
                 (A) (A) (A) (A) (A) (A) (A) (A) (A) (A) (A) (A)
                 (A) (A) (A) (A) (A) (A) (A) (A) (A) (A) (A) (A)
                 (A) (A) (A)
 The electronic state is 1-A.
 Alpha  occ. eigenvalues --  -10.19602 -10.19440 -10.19310 -10.18882 -10.17000
 Alpha  occ. eigenvalues --  -10.16898  -0.86878  -0.75867  -0.74215  -0.60207
 Alpha  occ. eigenvalues --   -0.59855  -0.51791  -0.45903  -0.44067  -0.42433
 Alpha  occ. eigenvalues --   -0.39505  -0.37095  -0.33602  -0.32340  -0.25882
 Alpha  occ. eigenvalues --   -0.24656
 Alpha virt. eigenvalues --   -0.00486   0.00530   0.06626   0.11811   0.13375
 Alpha virt. eigenvalues --    0.15060   0.17065   0.17963   0.21096   0.29725
 Alpha virt. eigenvalues --    0.31023   0.33463   0.34191   0.44899   0.49708
 Alpha virt. eigenvalues --    0.53000   0.55074   0.56229   0.58602   0.60394
 Alpha virt. eigenvalues --    0.61252   0.61840   0.63774   0.64271   0.66303
 Alpha virt. eigenvalues --    0.66914   0.67385   0.74384   0.75704   0.77144
 Alpha virt. eigenvalues --    0.79816   0.81078   0.84086   0.91713   0.94360
 Alpha virt. eigenvalues --    0.95175   0.96656   1.01426   1.05125   1.10275
 Alpha virt. eigenvalues --    1.12051   1.14067   1.22330   1.28792   1.31761
 Alpha virt. eigenvalues --    1.39491   1.43122   1.46350   1.51271   1.57615
 Alpha virt. eigenvalues --    1.65673   1.72994   1.78451   1.82337   1.83948
 Alpha virt. eigenvalues --    1.91290   2.00898   2.01470   2.02352   2.06345
 Alpha virt. eigenvalues --    2.09618   2.11944   2.14877   2.24184   2.24720
 Alpha virt. eigenvalues --    2.27818   2.30681   2.32198   2.33939   2.38050
 Alpha virt. eigenvalues --    2.39726   2.45441   2.46950   2.49419   2.51101
 Alpha virt. eigenvalues --    2.54094   2.55543   2.59668   2.63318   2.72596
 Alpha virt. eigenvalues --    2.74831   2.80865   2.81705   2.97163   2.98698
 Alpha virt. eigenvalues --    3.08533   3.14453   3.19220   3.29060   3.39686
 Alpha virt. eigenvalues --    3.54785   3.59296   3.91770   4.17057   4.17629
 Alpha virt. eigenvalues --    4.18293   4.43644   4.45808   4.81630
          Condensed to atoms (all electrons):
               1          2          3          4          5          6
     1  C    4.798488   0.552779  -0.031111  -0.049746  -0.037615   0.540211
     2  C    0.552779   4.894104   0.511730  -0.041632  -0.051701  -0.032260
     3  C   -0.031111   0.511730   4.812287   0.568271  -0.033713  -0.048119
     4  C   -0.049746  -0.041632   0.568271   4.819017   0.538823  -0.044814
     5  C   -0.037615  -0.051701  -0.033713   0.538823   4.804380   0.576016
     6  C    0.540211  -0.032260  -0.048119  -0.044814   0.576016   4.783783
     7  H    0.371130  -0.050915   0.006492   0.001454   0.009243  -0.049317
     8  H   -0.047898   0.006776   0.000283   0.006485  -0.046733   0.378630
     9  H    0.008645   0.000380   0.004460  -0.032559   0.353084  -0.055221
    10  H    0.000242   0.004843  -0.036555   0.358132  -0.042045   0.004780
    11  H    0.004078  -0.036095   0.361137  -0.042130   0.005013   0.000571
    12  H   -0.037102   0.351212  -0.033623   0.003672   0.000644   0.004419
               7          8          9         10         11         12
     1  C    0.371130  -0.047898   0.008645   0.000242   0.004078  -0.037102
     2  C   -0.050915   0.006776   0.000380   0.004843  -0.036095   0.351212
     3  C    0.006492   0.000283   0.004460  -0.036555   0.361137  -0.033623
     4  C    0.001454   0.006485  -0.032559   0.358132  -0.042130   0.003672
     5  C    0.009243  -0.046733   0.353084  -0.042045   0.005013   0.000644
     6  C   -0.049317   0.378630  -0.055221   0.004780   0.000571   0.004419
     7  H    0.650408  -0.009839  -0.000499   0.000017  -0.000209  -0.007270
     8  H   -0.009839   0.640369  -0.011558  -0.000227   0.000024  -0.000213
     9  H   -0.000499  -0.011558   0.667292  -0.005095  -0.000127   0.000013
    10  H    0.000017  -0.000227  -0.005095   0.639235  -0.007741  -0.000118
    11  H   -0.000209   0.000024  -0.000127  -0.007741   0.631380  -0.004947
    12  H   -0.007270  -0.000213   0.000013  -0.000118  -0.004947   0.649363
 Mulliken charges:
               1
     1  C   -0.072101
     2  C   -0.109223
     3  C   -0.081540
     4  C   -0.084975
     5  C   -0.075398
     6  C   -0.058680
     7  H    0.079305
     8  H    0.083902
     9  H    0.071185
    10  H    0.084531
    11  H    0.089046
    12  H    0.073949
 Sum of Mulliken charges =   0.00000
 Mulliken charges with hydrogens summed into heavy atoms:
               1
     1  C    0.007203
     2  C   -0.035273
     3  C    0.007506
     4  C   -0.000444
     5  C   -0.004213
     6  C    0.025222
 Electronic spatial extent (au):  <R**2>=            444.9040
 Charge=             -0.0000 electrons
 Dipole moment (field-independent basis, Debye):
    X=              0.3025    Y=             -0.0131    Z=              0.2660  Tot=              0.4031
 Quadrupole moment (field-independent basis, Debye-Ang):
   XX=            -31.7210   YY=            -32.9226   ZZ=            -38.0553
   XY=             -0.5176   XZ=             -0.9153   YZ=              0.2170
 Traceless Quadrupole moment (field-independent basis, Debye-Ang):
   XX=              2.5120   YY=              1.3104   ZZ=             -3.8223
   XY=             -0.5176   XZ=             -0.9153   YZ=              0.2170
 Octapole moment (field-independent basis, Debye-Ang**2):
  XXX=              3.6561  YYY=             -0.7633  ZZZ=              0.2946  XYY=             -0.2440
  XXY=             -0.3320  XXZ=              1.6842  XZZ=              0.5938  YZZ=             -0.1980
  YYZ=              0.9037  XYZ=             -0.4717
 Hexadecapole moment (field-independent basis, Debye-Ang**3):
 XXXX=           -270.9582 YYYY=           -265.8188 ZZZZ=            -41.3337 XXXY=             -2.8333
 XXXZ=             -4.1327 YYYX=             -2.6588 YYYZ=              2.3722 ZZZX=             -0.6011
 ZZZY=              0.2000 XXYY=            -89.7896 XXZZ=            -59.5182 YYZZ=            -57.7497
 XXYZ=             -0.8722 YYXZ=             -3.1574 ZZXY=             -0.9045
 N-N= 2.069414784152D+02 E-N=-9.513773598227D+02  KE= 2.302976819936D+02
 1\1\GINC-DESKTOP-PRN5QE3\SP\RB3LYP TD-FC\6-31G(d,p)\C6H6\SHOHEI\10-Nov
 -2023\0\\# TD=(NStates=1) B3LYP/6-31G(d,p)\\ABSSPCT\\0,1\C,0,-0.251211
 8251,1.2991067434,0.0943237276\C,0,1.0324559763,0.8941864462,-0.120549
 3839\C,0,1.3032145401,-0.4612768222,-0.0025836762\C,0,0.281186206,-1.3
 20849065,0.0261002892\C,0,-1.0268288212,-0.8503401226,-0.0459822361\C,
 0,-1.3211173259,0.4483523232,0.0154013494\H,0,-0.4857405479,2.24778673
 9,-0.1074868487\H,0,-2.2585014299,0.8150750686,0.1121347246\H,0,-2.050
 2562331,-1.4084005665,-0.2496463836\H,0,0.3498848333,-2.4846911305,0.2
 559758941\H,0,2.3207478003,-0.9193221471,0.3114620446\H,0,1.8916866558
 ,1.7267610471,0.1437617936\\Version=EM64L-G16RevB.01\State=1-A\HF=-232
 .1831912\RMSD=6.392e-09\PG=C01 [X(C6H6)]\\@


 O WAD SOME POWER THE GIFTIE GIE US       
 TO SEE OURSELS AS OTHERS SEE US.....     
 IT WOULD FRAE MONIE A BLUNDER FREE US,   
                     AND FOOLISH NOTION...
 WHAT AIRS IN DRESS AND GAIT WAD LEA'E US,
                     AND EV'N DEVOTION....
                                          
              (ROBERT BURNS 'TO A LOUSE') 
 Job cpu time:       0 days  0 hours  3 minutes  8.4 seconds.
 Elapsed time:       0 days  0 hours  0 minutes 47.7 seconds.
 File lengths (MBytes):  RWF=    116 Int=      0 D2E=      0 Chk=      3 Scr=      1
 Normal termination of Gaussian 16 at Fri Nov 10 17:04:40 2023.
