 Entering Gaussian System, Link 0=g16
 Input=Geometry-121-.com
 Output=Geometry-121-.log
 Initial command:
 /home/shohei/gaussian/g16/l1.exe "/home/shohei/gaussian/scratch/Gau-1642.inp" -scrdir="/home/shohei/gaussian/scratch/"
 Entering Link 1 = /home/shohei/gaussian/g16/l1.exe PID=      1644.
  
 Copyright (c) 1988-2017, Gaussian, Inc.  All Rights Reserved.
  
 This is part of the Gaussian(R) 16 program.  It is based on
 the Gaussian(R) 09 system (copyright 2009, Gaussian, Inc.),
 the Gaussian(R) 03 system (copyright 2003, Gaussian, Inc.),
 the Gaussian(R) 98 system (copyright 1998, Gaussian, Inc.),
 the Gaussian(R) 94 system (copyright 1995, Gaussian, Inc.),
 the Gaussian 92(TM) system (copyright 1992, Gaussian, Inc.),
 the Gaussian 90(TM) system (copyright 1990, Gaussian, Inc.),
 the Gaussian 88(TM) system (copyright 1988, Gaussian, Inc.),
 the Gaussian 86(TM) system (copyright 1986, Carnegie Mellon
 University), and the Gaussian 82(TM) system (copyright 1983,
 Carnegie Mellon University). Gaussian is a federally registered
 trademark of Gaussian, Inc.
  
 This software contains proprietary and confidential information,
 including trade secrets, belonging to Gaussian, Inc.
  
 This software is provided under written license and may be
 used, copied, transmitted, or stored only in accord with that
 written license.
  
 The following legend is applicable only to US Government
 contracts under FAR:
  
                    RESTRICTED RIGHTS LEGEND
  
 Use, reproduction and disclosure by the US Government is
 subject to restrictions as set forth in subparagraphs (a)
 and (c) of the Commercial Computer Software - Restricted
 Rights clause in FAR 52.227-19.
  
 Gaussian, Inc.
 340 Quinnipiac St., Bldg. 40, Wallingford CT 06492
  
  
 ---------------------------------------------------------------
 Warning -- This program may not be used in any manner that
 competes with the business of Gaussian, Inc. or will provide
 assistance to any competitor of Gaussian, Inc.  The licensee
 of this program is prohibited from giving any competitor of
 Gaussian, Inc. access to this program.  By using this program,
 the user acknowledges that Gaussian, Inc. is engaged in the
 business of creating and licensing software in the field of
 computational chemistry and represents and warrants to the
 licensee that it is not a competitor of Gaussian, Inc. and that
 it will not use this program in any manner prohibited above.
 ---------------------------------------------------------------
  

 Cite this work as:
 Gaussian 16, Revision B.01,
 M. J. Frisch, G. W. Trucks, H. B. Schlegel, G. E. Scuseria, 
 M. A. Robb, J. R. Cheeseman, G. Scalmani, V. Barone, 
 G. A. Petersson, H. Nakatsuji, X. Li, M. Caricato, A. V. Marenich, 
 J. Bloino, B. G. Janesko, R. Gomperts, B. Mennucci, H. P. Hratchian, 
 J. V. Ortiz, A. F. Izmaylov, J. L. Sonnenberg, D. Williams-Young, 
 F. Ding, F. Lipparini, F. Egidi, J. Goings, B. Peng, A. Petrone, 
 T. Henderson, D. Ranasinghe, V. G. Zakrzewski, J. Gao, N. Rega, 
 G. Zheng, W. Liang, M. Hada, M. Ehara, K. Toyota, R. Fukuda, 
 J. Hasegawa, M. Ishida, T. Nakajima, Y. Honda, O. Kitao, H. Nakai, 
 T. Vreven, K. Throssell, J. A. Montgomery, Jr., J. E. Peralta, 
 F. Ogliaro, M. J. Bearpark, J. J. Heyd, E. N. Brothers, K. N. Kudin, 
 V. N. Staroverov, T. A. Keith, R. Kobayashi, J. Normand, 
 K. Raghavachari, A. P. Rendell, J. C. Burant, S. S. Iyengar, 
 J. Tomasi, M. Cossi, J. M. Millam, M. Klene, C. Adamo, R. Cammi, 
 J. W. Ochterski, R. L. Martin, K. Morokuma, O. Farkas, 
 J. B. Foresman, and D. J. Fox, Gaussian, Inc., Wallingford CT, 2016.
 
 ******************************************
 Gaussian 16:  EM64L-G16RevB.01 20-Dec-2017
                10-Nov-2023 
 ******************************************
 %nproc=4
 Will use up to    4 processors via shared memory.
 %Mem=2Gb
 ---------------------------------
 # TD=(NStates=1) B3LYP/6-31G(d,p)
 ---------------------------------
 1/38=1,172=1/1;
 2/12=2,17=6,18=5,40=1/2;
 3/5=1,6=6,7=101,11=9,25=1,30=1,74=-5/1,2,3,8;
 4//1;
 5/5=2,38=5/2;
 8/6=1,10=2,108=1/1;
 9/41=1,42=1,70=2/14;
 6/7=2,8=2,9=2,10=2/1;
 99/5=1,9=1/99;
 -------
 ABSSPCT
 -------
 Symbolic Z-matrix:
 Charge =  0 Multiplicity = 1
 6                    -0.26069   1.40358   0.07381 
 6                     1.0994    0.91246  -0.05945 
 6                     1.32332  -0.47832   0.01453 
 6                     0.24761  -1.35415   0.02864 
 6                    -1.10243  -0.92192  -0.023 
 6                    -1.3175    0.44896  -0.06358 
 1                    -0.38896   2.56567   0.2341 
 1                    -2.25794   0.66343   0.07506 
 1                    -1.91506  -1.73502   0.04075 
 1                     0.5054   -2.35818   0.21112 
 1                     2.41649  -0.84432  -0.1162 
 1                     1.79534   1.59248  -0.03398 
 
                          Input orientation:                          
 ---------------------------------------------------------------------
 Center     Atomic      Atomic             Coordinates (Angstroms)
 Number     Number       Type             X           Y           Z
 ---------------------------------------------------------------------
      1          6           0       -0.260691    1.403577    0.073813
      2          6           0        1.099396    0.912460   -0.059451
      3          6           0        1.323318   -0.478317    0.014530
      4          6           0        0.247608   -1.354149    0.028635
      5          6           0       -1.102435   -0.921920   -0.023002
      6          6           0       -1.317495    0.448957   -0.063581
      7          1           0       -0.388961    2.565675    0.234096
      8          1           0       -2.257936    0.663431    0.075065
      9          1           0       -1.915064   -1.735024    0.040755
     10          1           0        0.505402   -2.358176    0.211120
     11          1           0        2.416493   -0.844320   -0.116202
     12          1           0        1.795344    1.592481   -0.033984
 ---------------------------------------------------------------------
                    Distance matrix (angstroms):
                    1          2          3          4          5
     1  C    0.000000
     2  C    1.452169   0.000000
     3  C    2.460513   1.410629   0.000000
     4  C    2.804543   2.422977   1.387239   0.000000
     5  C    2.475044   2.866066   2.466266   1.418486   0.000000
     6  C    1.430738   2.460938   2.799970   2.389402   1.388237
     7  H    1.180091   2.243768   3.499428   3.976487   3.569098
     8  H    2.129978   3.369242   3.759340   3.217225   1.964215
     9  H    3.548078   4.013251   3.473776   2.195987   1.151334
    10  H    3.841424   3.335131   2.059491   1.052534   2.168590
    11  H    3.500923   2.196415   1.160207   2.232704   3.521017
    12  H    2.067507   0.973355   2.124468   3.328969   3.836594
                    6          7          8          9         10
     6  C    0.000000
     7  H    2.330511   0.000000
     8  H    0.974500   2.671496   0.000000
     9  H    2.266660   4.567536   2.423082   0.000000
    10  H    3.358334   5.004470   4.096908   2.505194   0.000000
    11  H    3.951962   4.429599   4.915301   4.424972   2.459913
    12  H    3.316367   2.406275   4.159820   4.984476   4.163138
                   11         12
    11  H    0.000000
    12  H    2.516065   0.000000
 Stoichiometry    C6H6
 Framework group  C1[X(C6H6)]
 Deg. of freedom    30
 Full point group                 C1      NOp   1
 Largest Abelian subgroup         C1      NOp   1
 Largest concise Abelian subgroup C1      NOp   1
                         Standard orientation:                         
 ---------------------------------------------------------------------
 Center     Atomic      Atomic             Coordinates (Angstroms)
 Number     Number       Type             X           Y           Z
 ---------------------------------------------------------------------
      1          6           0       -0.767740   -1.205725    0.064040
      2          6           0       -1.425568    0.082806   -0.061437
      3          6           0       -0.638628    1.250938    0.016461
      4          6           0        0.745277    1.155390    0.026953
      5          6           0        1.435586   -0.082376   -0.032301
      6          6           0        0.655849   -1.230087   -0.076713
      7          1           0       -1.467740   -2.142673    0.221339
      8          1           0        1.196299   -2.029924    0.056799
      9          1           0        2.584652   -0.044217    0.029030
     10          1           0        1.243478    2.063744    0.212744
     11          1           0       -1.187046    2.265733   -0.108069
     12          1           0       -2.398303    0.061661   -0.033861
 ---------------------------------------------------------------------
 Rotational constants (GHZ):           5.6732905           5.4715470           2.7944496
 Standard basis: 6-31G(d,p) (6D, 7F)
 There are   120 symmetry adapted cartesian basis functions of A   symmetry.
 There are   120 symmetry adapted basis functions of A   symmetry.
   120 basis functions,   210 primitive gaussians,   120 cartesian basis functions
    21 alpha electrons       21 beta electrons
       nuclear repulsion energy       201.5388510075 Hartrees.
 NAtoms=   12 NActive=   12 NUniq=   12 SFac= 1.00D+00 NAtFMM=   60 NAOKFM=F Big=F
 Integral buffers will be    131072 words long.
 Regular integral format.
 Two-electron integral symmetry is turned on.
 One-electron integrals computed using PRISM.
 NBasis=   120 RedAO= T EigKep=  9.00D-04  NBF=   120
 NBsUse=   120 1.00D-06 EigRej= -1.00D+00 NBFU=   120
 ExpMin= 1.61D-01 ExpMax= 3.05D+03 ExpMxC= 4.57D+02 IAcc=3 IRadAn=         5 AccDes= 0.00D+00
 Harris functional with IExCor=  402 and IRadAn=       5 diagonalized for initial guess.
 HarFok:  IExCor=  402 AccDes= 0.00D+00 IRadAn=         5 IDoV= 1 UseB2=F ITyADJ=14
 ICtDFT=  3500011 ScaDFX=  1.000000  1.000000  1.000000  1.000000
 FoFCou: FMM=F IPFlag=           0 FMFlag=      100000 FMFlg1=           0
         NFxFlg=           0 DoJE=T BraDBF=F KetDBF=T FulRan=T
         wScrn=  0.000000 ICntrl=       500 IOpCl=  0 I1Cent=   200000004 NGrid=           0
         NMat0=    1 NMatS0=      1 NMatT0=    0 NMatD0=    1 NMtDS0=    0 NMtDT0=    0
 Petite list used in FoFCou.
 Keep R1 ints in memory in canonical form, NReq=30147728.
 Requested convergence on RMS density matrix=1.00D-08 within 128 cycles.
 Requested convergence on MAX density matrix=1.00D-06.
 Requested convergence on             energy=1.00D-06.
 No special actions if energy rises.
 Integral accuracy reduced to 1.0D-05 until final iterations.
 Initial convergence to 1.0D-05 achieved.  Increase integral accuracy.
 SCF Done:  E(RB3LYP) =  -232.208642028     A.U. after   13 cycles
            NFock= 13  Conv=0.36D-08     -V/T= 2.0103
 DoSCS=F DFT=T ScalE2(SS,OS)=  1.000000  1.000000
 ExpMin= 1.61D-01 ExpMax= 3.05D+03 ExpMxC= 4.57D+02 IAcc=3 IRadAn=         5 AccDes= 0.00D+00
 HarFok:  IExCor=  205 AccDes= 0.00D+00 IRadAn=         5 IDoV=-2 UseB2=F ITyADJ=14
 ICtDFT= 12500011 ScaDFX=  1.000000  1.000000  1.000000  1.000000
 Range of M.O.s used for correlation:     7   120
 NBasis=   120 NAE=    21 NBE=    21 NFC=     6 NFV=     0
 NROrb=    114 NOA=    15 NOB=    15 NVA=    99 NVB=    99
 Keep R1, R2, and R3 ints in memory in canonical form, NReq=84032236.
 Orbital symmetries:
       Occupied  (A) (A) (A) (A) (A) (A) (A) (A) (A) (A) (A) (A)
                 (A) (A) (A) (A) (A) (A) (A) (A) (A)
       Virtual   (A) (A) (A) (A) (A) (A) (A) (A) (A) (A) (A) (A)
                 (A) (A) (A) (A) (A) (A) (A) (A) (A) (A) (A) (A)
                 (A) (A) (A) (A) (A) (A) (A) (A) (A) (A) (A) (A)
                 (A) (A) (A) (A) (A) (A) (A) (A) (A) (A) (A) (A)
                 (A) (A) (A) (A) (A) (A) (A) (A) (A) (A) (A) (A)
                 (A) (A) (A) (A) (A) (A) (A) (A) (A) (A) (A) (A)
                 (A) (A) (A) (A) (A) (A) (A) (A) (A) (A) (A) (A)
                 (A) (A) (A) (A) (A) (A) (A) (A) (A) (A) (A) (A)
                 (A) (A) (A)
     4 initial guesses have been made.
 Convergence on wavefunction:    0.001000000000000
 Iteration     1 Dimension     4 NMult     0 NNew      4
 CISAX will form     4 AO SS matrices at one time.
 New state      1 was old state      2
 Iteration     2 Dimension     6 NMult     4 NNew      2
 Iteration     3 Dimension     8 NMult     6 NNew      2
 Iteration     4 Dimension    10 NMult     8 NNew      2
 Iteration     5 Dimension    12 NMult    10 NNew      2
 ***********************************************************************
 Excited states from <AA,BB:AA,BB> singles matrix:
 ***********************************************************************
 
 Ground to excited state transition densities written to RWF  633
 Ground to excited state transition electric dipole moments (Au):
       state          X           Y           Z        Dip. S.      Osc.
         1        -0.0307      0.0538     -0.0013      0.0038      0.0005
 Ground to excited state transition velocity dipole moments (Au):
       state          X           Y           Z        Dip. S.      Osc.
         1         0.0057     -0.0116     -0.0001      0.0002      0.0006
 Ground to excited state transition magnetic dipole moments (Au):
       state          X           Y           Z
         1        -0.0078     -0.0171      0.0099
 Ground to excited state transition velocity quadrupole moments (Au):
       state          XX          YY          ZZ          XY          XZ          YZ
         1         0.0008     -0.0029      0.0029      0.0015      0.0178     -0.0128
 <0|del|b> * <b|rxdel|0> + <0|del|b> * <b|delr+rdel|0>
 Rotatory Strengths (R) in cgs (10**-40 erg-esu-cm/Gauss)
       state          XX          YY          ZZ    R(velocity)    E-M Angle
         1         0.7376     -0.2145      0.0366      0.1866       56.04
 1/2[<0|r|b>*<b|rxdel|0> + (<0|rxdel|b>*<b|r|0>)*]
 Rotatory Strengths (R) in cgs (10**-40 erg-esu-cm/Gauss)
       state          XX          YY          ZZ     R(length)
         1        -0.1683      0.6508      0.0088      0.1638
  1/2[<0|del|b>*<b|r|0> + (<0|r|b>*<b|del|0>)*] (Au)
       state          X           Y           Z        Dip. S.   Osc.(frdel)
         1        -0.0002     -0.0006      0.0000      0.0008      0.0005

 Excitation energies and oscillator strengths:
 
 Excited State   1:      Singlet-A      5.2898 eV  234.38 nm  f=0.0005  <S**2>=0.000
      20 -> 22        -0.47414
      20 -> 23         0.11869
      21 -> 22         0.15267
      21 -> 23         0.48726
 This state for optimization and/or second-order correction.
 Total Energy, E(TD-HF/TD-DFT) =  -232.014243966    
 Copying the excited state density for this state as the 1-particle RhoCI density.
 SavETr:  write IOETrn=   770 NScale= 10 NData=  16 NLR=1 NState=    1 LETran=      28.

 **********************************************************************

            Population analysis using the SCF Density.

 **********************************************************************

 Orbital symmetries:
       Occupied  (A) (A) (A) (A) (A) (A) (A) (A) (A) (A) (A) (A)
                 (A) (A) (A) (A) (A) (A) (A) (A) (A)
       Virtual   (A) (A) (A) (A) (A) (A) (A) (A) (A) (A) (A) (A)
                 (A) (A) (A) (A) (A) (A) (A) (A) (A) (A) (A) (A)
                 (A) (A) (A) (A) (A) (A) (A) (A) (A) (A) (A) (A)
                 (A) (A) (A) (A) (A) (A) (A) (A) (A) (A) (A) (A)
                 (A) (A) (A) (A) (A) (A) (A) (A) (A) (A) (A) (A)
                 (A) (A) (A) (A) (A) (A) (A) (A) (A) (A) (A) (A)
                 (A) (A) (A) (A) (A) (A) (A) (A) (A) (A) (A) (A)
                 (A) (A) (A) (A) (A) (A) (A) (A) (A) (A) (A) (A)
                 (A) (A) (A)
 The electronic state is 1-A.
 Alpha  occ. eigenvalues --  -10.20635 -10.19792 -10.19555 -10.18431 -10.18314
 Alpha  occ. eigenvalues --  -10.18204  -0.84054  -0.74454  -0.73294  -0.59974
 Alpha  occ. eigenvalues --   -0.59715  -0.52046  -0.46162  -0.43324  -0.41977
 Alpha  occ. eigenvalues --   -0.40616  -0.35740  -0.34759  -0.32731  -0.24884
 Alpha  occ. eigenvalues --   -0.23997
 Alpha virt. eigenvalues --   -0.00766  -0.00033   0.08520   0.12809   0.13648
 Alpha virt. eigenvalues --    0.14963   0.17940   0.18948   0.19571   0.28338
 Alpha virt. eigenvalues --    0.29930   0.30308   0.32180   0.46201   0.50397
 Alpha virt. eigenvalues --    0.52508   0.52886   0.56033   0.58860   0.59535
 Alpha virt. eigenvalues --    0.60196   0.60383   0.60945   0.62582   0.63556
 Alpha virt. eigenvalues --    0.66419   0.66610   0.73770   0.77935   0.79117
 Alpha virt. eigenvalues --    0.79750   0.86858   0.89742   0.92111   0.92957
 Alpha virt. eigenvalues --    0.93889   0.94567   1.05753   1.06584   1.08354
 Alpha virt. eigenvalues --    1.10158   1.14513   1.26071   1.29574   1.30610
 Alpha virt. eigenvalues --    1.34727   1.41395   1.43249   1.47343   1.53583
 Alpha virt. eigenvalues --    1.66381   1.73572   1.78714   1.85023   1.87471
 Alpha virt. eigenvalues --    1.88423   1.94354   1.96114   1.97188   2.02697
 Alpha virt. eigenvalues --    2.04657   2.05640   2.06077   2.25087   2.26764
 Alpha virt. eigenvalues --    2.33915   2.34569   2.35673   2.39598   2.40454
 Alpha virt. eigenvalues --    2.41885   2.43208   2.44527   2.47685   2.50848
 Alpha virt. eigenvalues --    2.51185   2.53136   2.60027   2.65898   2.66244
 Alpha virt. eigenvalues --    2.71367   2.77655   2.79491   2.99997   3.04287
 Alpha virt. eigenvalues --    3.07909   3.18443   3.27177   3.28245   3.37790
 Alpha virt. eigenvalues --    3.59909   3.70534   3.94433   4.11416   4.16080
 Alpha virt. eigenvalues --    4.16636   4.42797   4.43722   4.78165
          Condensed to atoms (all electrons):
               1          2          3          4          5          6
     1  C    4.881310   0.527398  -0.037508  -0.038065  -0.037668   0.532760
     2  C    0.527398   4.794740   0.539282  -0.036486  -0.034390  -0.028843
     3  C   -0.037508   0.539282   4.832033   0.552924  -0.039219  -0.039965
     4  C   -0.038065  -0.036486   0.552924   4.792485   0.541368  -0.037438
     5  C   -0.037668  -0.034390  -0.039219   0.541368   4.837548   0.542914
     6  C    0.532760  -0.028843  -0.039965  -0.037438   0.542914   4.788640
     7  H    0.357917  -0.038635   0.003947   0.000381   0.003019  -0.032447
     8  H   -0.045790   0.004594   0.001323   0.006137  -0.050201   0.374769
     9  H    0.003398   0.000237   0.003995  -0.037897   0.364479  -0.035927
    10  H    0.000795   0.005600  -0.046995   0.368580  -0.043330   0.005754
    11  H    0.004195  -0.042577   0.360801  -0.036322   0.004004   0.000249
    12  H   -0.047897   0.376182  -0.044780   0.005820   0.000857   0.005320
               7          8          9         10         11         12
     1  C    0.357917  -0.045790   0.003398   0.000795   0.004195  -0.047897
     2  C   -0.038635   0.004594   0.000237   0.005600  -0.042577   0.376182
     3  C    0.003947   0.001323   0.003995  -0.046995   0.360801  -0.044780
     4  C    0.000381   0.006137  -0.037897   0.368580  -0.036322   0.005820
     5  C    0.003019  -0.050201   0.364479  -0.043330   0.004004   0.000857
     6  C   -0.032447   0.374769  -0.035927   0.005754   0.000249   0.005320
     7  H    0.627909  -0.004132  -0.000079   0.000012  -0.000144  -0.005706
     8  H   -0.004132   0.642582  -0.006621  -0.000353   0.000018  -0.000279
     9  H   -0.000079  -0.006621   0.620567  -0.005558  -0.000131   0.000013
    10  H    0.000012  -0.000353  -0.005558   0.641210  -0.007019  -0.000266
    11  H   -0.000144   0.000018  -0.000131  -0.007019   0.639208  -0.005755
    12  H   -0.005706  -0.000279   0.000013  -0.000266  -0.005755   0.640527
 Mulliken charges:
               1
     1  C   -0.100846
     2  C   -0.067101
     3  C   -0.085838
     4  C   -0.081489
     5  C   -0.089382
     6  C   -0.075786
     7  H    0.087956
     8  H    0.077954
     9  H    0.093524
    10  H    0.081571
    11  H    0.083473
    12  H    0.075963
 Sum of Mulliken charges =  -0.00000
 Mulliken charges with hydrogens summed into heavy atoms:
               1
     1  C   -0.012889
     2  C    0.008862
     3  C   -0.002366
     4  C    0.000082
     5  C    0.004142
     6  C    0.002168
 Electronic spatial extent (au):  <R**2>=            464.8643
 Charge=              0.0000 electrons
 Dipole moment (field-independent basis, Debye):
    X=             -0.0015    Y=              0.0110    Z=              0.2259  Tot=              0.2261
 Quadrupole moment (field-independent basis, Debye-Ang):
   XX=            -30.8671   YY=            -32.1137   ZZ=            -38.6000
   XY=              0.1289   XZ=              0.2668   YZ=             -0.3263
 Traceless Quadrupole moment (field-independent basis, Debye-Ang):
   XX=              2.9932   YY=              1.7466   ZZ=             -4.7397
   XY=              0.1289   XZ=              0.2668   YZ=             -0.3263
 Octapole moment (field-independent basis, Debye-Ang**2):
  XXX=              0.7338  YYY=              0.9467  ZZZ=              0.2900  XYY=             -1.0701
  XXY=             -0.9982  XXZ=              0.7509  XZZ=              0.0593  YZZ=              0.0184
  YYZ=              1.2374  XYZ=              0.9590
 Hexadecapole moment (field-independent basis, Debye-Ang**3):
 XXXX=           -274.0279 YYYY=           -276.3897 ZZZZ=            -41.2535 XXXY=              0.8931
 XXXZ=              1.1368 YYYX=              0.1155 YYYZ=             -1.9909 ZZZX=              0.3837
 ZZZY=             -0.1698 XXYY=            -91.1729 XXZZ=            -61.9830 YYZZ=            -60.5163
 XXYZ=             -0.8742 YYXZ=              0.8350 ZZXY=             -0.1530
 N-N= 2.015388510075D+02 E-N=-9.402564863125D+02  KE= 2.298322751115D+02
 1\1\GINC-DESKTOP-PRN5QE3\SP\RB3LYP TD-FC\6-31G(d,p)\C6H6\SHOHEI\10-Nov
 -2023\0\\# TD=(NStates=1) B3LYP/6-31G(d,p)\\ABSSPCT\\0,1\C,0,-0.260691
 4087,1.4035771073,0.0738134017\C,0,1.0993962473,0.9124598848,-0.059450
 8212\C,0,1.3233178875,-0.4783168661,0.0145295668\C,0,0.2476077531,-1.3
 541490518,0.0286350648\C,0,-1.1024346999,-0.9219198733,-0.0230022705\C
 ,0,-1.3174954742,0.4489570546,-0.0635807404\H,0,-0.3889608781,2.565674
 7808,0.2340956837\H,0,-2.2579364092,0.663431066,0.075064822\H,0,-1.915
 063723,-1.7350241643,0.0407547946\H,0,0.5054016796,-2.3581759755,0.211
 1201588\H,0,2.4164929959,-0.8443198362,-0.1162020654\H,0,1.795343837,1
 .5924808319,-0.0339840963\\Version=EM64L-G16RevB.01\State=1-A\HF=-232.
 208642\RMSD=3.580e-09\PG=C01 [X(C6H6)]\\@


 THERE'S SMALL CHOICE IN A BOWL OF ROTTEN APPLES.
                     SHAKESPEARE
 Job cpu time:       0 days  0 hours  3 minutes  8.1 seconds.
 Elapsed time:       0 days  0 hours  0 minutes 47.5 seconds.
 File lengths (MBytes):  RWF=    116 Int=      0 D2E=      0 Chk=      3 Scr=      1
 Normal termination of Gaussian 16 at Fri Nov 10 17:47:22 2023.
