 Entering Gaussian System, Link 0=g16
 Input=Geometry-401-.com
 Output=Geometry-401-.log
 Initial command:
 /home/shohei/gaussian/g16/l1.exe "/home/shohei/gaussian/scratch/Gau-4329.inp" -scrdir="/home/shohei/gaussian/scratch/"
 Entering Link 1 = /home/shohei/gaussian/g16/l1.exe PID=      4331.
  
 Copyright (c) 1988-2017, Gaussian, Inc.  All Rights Reserved.
  
 This is part of the Gaussian(R) 16 program.  It is based on
 the Gaussian(R) 09 system (copyright 2009, Gaussian, Inc.),
 the Gaussian(R) 03 system (copyright 2003, Gaussian, Inc.),
 the Gaussian(R) 98 system (copyright 1998, Gaussian, Inc.),
 the Gaussian(R) 94 system (copyright 1995, Gaussian, Inc.),
 the Gaussian 92(TM) system (copyright 1992, Gaussian, Inc.),
 the Gaussian 90(TM) system (copyright 1990, Gaussian, Inc.),
 the Gaussian 88(TM) system (copyright 1988, Gaussian, Inc.),
 the Gaussian 86(TM) system (copyright 1986, Carnegie Mellon
 University), and the Gaussian 82(TM) system (copyright 1983,
 Carnegie Mellon University). Gaussian is a federally registered
 trademark of Gaussian, Inc.
  
 This software contains proprietary and confidential information,
 including trade secrets, belonging to Gaussian, Inc.
  
 This software is provided under written license and may be
 used, copied, transmitted, or stored only in accord with that
 written license.
  
 The following legend is applicable only to US Government
 contracts under FAR:
  
                    RESTRICTED RIGHTS LEGEND
  
 Use, reproduction and disclosure by the US Government is
 subject to restrictions as set forth in subparagraphs (a)
 and (c) of the Commercial Computer Software - Restricted
 Rights clause in FAR 52.227-19.
  
 Gaussian, Inc.
 340 Quinnipiac St., Bldg. 40, Wallingford CT 06492
  
  
 ---------------------------------------------------------------
 Warning -- This program may not be used in any manner that
 competes with the business of Gaussian, Inc. or will provide
 assistance to any competitor of Gaussian, Inc.  The licensee
 of this program is prohibited from giving any competitor of
 Gaussian, Inc. access to this program.  By using this program,
 the user acknowledges that Gaussian, Inc. is engaged in the
 business of creating and licensing software in the field of
 computational chemistry and represents and warrants to the
 licensee that it is not a competitor of Gaussian, Inc. and that
 it will not use this program in any manner prohibited above.
 ---------------------------------------------------------------
  

 Cite this work as:
 Gaussian 16, Revision B.01,
 M. J. Frisch, G. W. Trucks, H. B. Schlegel, G. E. Scuseria, 
 M. A. Robb, J. R. Cheeseman, G. Scalmani, V. Barone, 
 G. A. Petersson, H. Nakatsuji, X. Li, M. Caricato, A. V. Marenich, 
 J. Bloino, B. G. Janesko, R. Gomperts, B. Mennucci, H. P. Hratchian, 
 J. V. Ortiz, A. F. Izmaylov, J. L. Sonnenberg, D. Williams-Young, 
 F. Ding, F. Lipparini, F. Egidi, J. Goings, B. Peng, A. Petrone, 
 T. Henderson, D. Ranasinghe, V. G. Zakrzewski, J. Gao, N. Rega, 
 G. Zheng, W. Liang, M. Hada, M. Ehara, K. Toyota, R. Fukuda, 
 J. Hasegawa, M. Ishida, T. Nakajima, Y. Honda, O. Kitao, H. Nakai, 
 T. Vreven, K. Throssell, J. A. Montgomery, Jr., J. E. Peralta, 
 F. Ogliaro, M. J. Bearpark, J. J. Heyd, E. N. Brothers, K. N. Kudin, 
 V. N. Staroverov, T. A. Keith, R. Kobayashi, J. Normand, 
 K. Raghavachari, A. P. Rendell, J. C. Burant, S. S. Iyengar, 
 J. Tomasi, M. Cossi, J. M. Millam, M. Klene, C. Adamo, R. Cammi, 
 J. W. Ochterski, R. L. Martin, K. Morokuma, O. Farkas, 
 J. B. Foresman, and D. J. Fox, Gaussian, Inc., Wallingford CT, 2016.
 
 ******************************************
 Gaussian 16:  EM64L-G16RevB.01 20-Dec-2017
                10-Nov-2023 
 ******************************************
 %nproc=4
 Will use up to    4 processors via shared memory.
 %Mem=2Gb
 ---------------------------------
 # TD=(NStates=1) B3LYP/6-31G(d,p)
 ---------------------------------
 1/38=1,172=1/1;
 2/12=2,17=6,18=5,40=1/2;
 3/5=1,6=6,7=101,11=9,25=1,30=1,74=-5/1,2,3,8;
 4//1;
 5/5=2,38=5/2;
 8/6=1,10=2,108=1/1;
 9/41=1,42=1,70=2/14;
 6/7=2,8=2,9=2,10=2/1;
 99/5=1,9=1/99;
 -------
 ABSSPCT
 -------
 Symbolic Z-matrix:
 Charge =  0 Multiplicity = 1
 6                    -0.28768   1.34831  -0.00329 
 6                     1.04428   0.85142   0.05083 
 6                     1.30257  -0.45908  -0.06635 
 6                     0.27885  -1.39967   0.0162 
 6                    -1.03794  -0.8745    0.03898 
 6                    -1.304     0.494    -0.0351 
 1                    -0.50676   2.53456   0.11835 
 1                    -2.31579   1.01404  -0.16839 
 1                    -1.76969  -1.68852   0.05196 
 1                     0.41956  -2.38518  -0.09244 
 1                     2.42149  -0.71049   0.11843 
 1                     1.85687   1.62415  -0.11146 
 
                          Input orientation:                          
 ---------------------------------------------------------------------
 Center     Atomic      Atomic             Coordinates (Angstroms)
 Number     Number       Type             X           Y           Z
 ---------------------------------------------------------------------
      1          6           0       -0.287678    1.348314   -0.003287
      2          6           0        1.044283    0.851422    0.050832
      3          6           0        1.302574   -0.459076   -0.066353
      4          6           0        0.278849   -1.399666    0.016196
      5          6           0       -1.037942   -0.874495    0.038984
      6          6           0       -1.303997    0.493997   -0.035102
      7          1           0       -0.506764    2.534561    0.118352
      8          1           0       -2.315786    1.014038   -0.168388
      9          1           0       -1.769687   -1.688519    0.051956
     10          1           0        0.419558   -2.385185   -0.092439
     11          1           0        2.421491   -0.710490    0.118426
     12          1           0        1.856872    1.624154   -0.111461
 ---------------------------------------------------------------------
                    Distance matrix (angstroms):
                    1          2          3          4          5
     1  C    0.000000
     2  C    1.422656   0.000000
     3  C    2.408223   1.340839   0.000000
     4  C    2.805838   2.377916   1.392673   0.000000
     5  C    2.346394   2.704551   2.379430   1.417838   0.000000
     6  C    1.328072   2.376880   2.775524   2.468601   1.396082
     7  H    1.212426   2.289818   3.502811   4.013199   3.451104
     8  H    2.062092   3.371138   3.908069   3.548545   2.289639
     9  H    3.379609   3.790742   3.311240   2.069109   1.094647
    10  H    3.800940   3.299459   2.119031   1.001423   2.103274
    11  H    3.404862   2.083468   1.161606   2.253071   3.464230
    12  H    2.164921   1.133029   2.156183   3.413201   3.826987
                    6          7          8          9         10
     6  C    0.000000
     7  H    2.196140   0.000000
     8  H    1.145393   2.380498   0.000000
     9  H    2.233343   4.408377   2.765970   0.000000
    10  H    3.356131   5.010629   4.363782   2.301953   0.000000
    11  H    3.918369   4.370931   5.049560   4.304292   2.618549
    12  H    3.357704   2.543311   4.217411   4.914512   4.259229
                   11         12
    11  H    0.000000
    12  H    2.412925   0.000000
 Stoichiometry    C6H6
 Framework group  C1[X(C6H6)]
 Deg. of freedom    30
 Full point group                 C1      NOp   1
 Largest Abelian subgroup         C1      NOp   1
 Largest concise Abelian subgroup C1      NOp   1
                         Standard orientation:                         
 ---------------------------------------------------------------------
 Center     Atomic      Atomic             Coordinates (Angstroms)
 Number     Number       Type             X           Y           Z
 ---------------------------------------------------------------------
      1          6           0        1.240267    0.594865    0.000007
      2          6           0        0.031444    1.343313   -0.050231
      3          6           0       -1.162337    0.744412    0.068323
      4          6           0       -1.278785   -0.640786   -0.016537
      5          6           0       -0.057064   -1.359780   -0.043179
      6          6           0        1.187708   -0.731839    0.029488
      7          1           0        2.311816    1.148642   -0.122830
      8          1           0        2.218849   -1.213195    0.159753
      9          1           0       -0.252202   -2.436795   -0.057731
     10          1           0       -2.143695   -1.133518    0.092981
     11          1           0       -2.046896    1.475100   -0.113280
     12          1           0        0.144730    2.458655    0.113883
 ---------------------------------------------------------------------
 Rotational constants (GHZ):           5.9701625           5.5670460           2.8873880
 Standard basis: 6-31G(d,p) (6D, 7F)
 There are   120 symmetry adapted cartesian basis functions of A   symmetry.
 There are   120 symmetry adapted basis functions of A   symmetry.
   120 basis functions,   210 primitive gaussians,   120 cartesian basis functions
    21 alpha electrons       21 beta electrons
       nuclear repulsion energy       204.2097934546 Hartrees.
 NAtoms=   12 NActive=   12 NUniq=   12 SFac= 1.00D+00 NAtFMM=   60 NAOKFM=F Big=F
 Integral buffers will be    131072 words long.
 Regular integral format.
 Two-electron integral symmetry is turned on.
 One-electron integrals computed using PRISM.
 NBasis=   120 RedAO= T EigKep=  7.09D-04  NBF=   120
 NBsUse=   120 1.00D-06 EigRej= -1.00D+00 NBFU=   120
 ExpMin= 1.61D-01 ExpMax= 3.05D+03 ExpMxC= 4.57D+02 IAcc=3 IRadAn=         5 AccDes= 0.00D+00
 Harris functional with IExCor=  402 and IRadAn=       5 diagonalized for initial guess.
 HarFok:  IExCor=  402 AccDes= 0.00D+00 IRadAn=         5 IDoV= 1 UseB2=F ITyADJ=14
 ICtDFT=  3500011 ScaDFX=  1.000000  1.000000  1.000000  1.000000
 FoFCou: FMM=F IPFlag=           0 FMFlag=      100000 FMFlg1=           0
         NFxFlg=           0 DoJE=T BraDBF=F KetDBF=T FulRan=T
         wScrn=  0.000000 ICntrl=       500 IOpCl=  0 I1Cent=   200000004 NGrid=           0
         NMat0=    1 NMatS0=      1 NMatT0=    0 NMatD0=    1 NMtDS0=    0 NMtDT0=    0
 Petite list used in FoFCou.
 Keep R1 ints in memory in canonical form, NReq=30147728.
 Requested convergence on RMS density matrix=1.00D-08 within 128 cycles.
 Requested convergence on MAX density matrix=1.00D-06.
 Requested convergence on             energy=1.00D-06.
 No special actions if energy rises.
 Integral accuracy reduced to 1.0D-05 until final iterations.
 Initial convergence to 1.0D-05 achieved.  Increase integral accuracy.
 SCF Done:  E(RB3LYP) =  -232.214438334     A.U. after   12 cycles
            NFock= 12  Conv=0.99D-08     -V/T= 2.0098
 DoSCS=F DFT=T ScalE2(SS,OS)=  1.000000  1.000000
 ExpMin= 1.61D-01 ExpMax= 3.05D+03 ExpMxC= 4.57D+02 IAcc=3 IRadAn=         5 AccDes= 0.00D+00
 HarFok:  IExCor=  205 AccDes= 0.00D+00 IRadAn=         5 IDoV=-2 UseB2=F ITyADJ=14
 ICtDFT= 12500011 ScaDFX=  1.000000  1.000000  1.000000  1.000000
 Range of M.O.s used for correlation:     7   120
 NBasis=   120 NAE=    21 NBE=    21 NFC=     6 NFV=     0
 NROrb=    114 NOA=    15 NOB=    15 NVA=    99 NVB=    99
 Keep R1, R2, and R3 ints in memory in canonical form, NReq=84032236.
 Orbital symmetries:
       Occupied  (A) (A) (A) (A) (A) (A) (A) (A) (A) (A) (A) (A)
                 (A) (A) (A) (A) (A) (A) (A) (A) (A)
       Virtual   (A) (A) (A) (A) (A) (A) (A) (A) (A) (A) (A) (A)
                 (A) (A) (A) (A) (A) (A) (A) (A) (A) (A) (A) (A)
                 (A) (A) (A) (A) (A) (A) (A) (A) (A) (A) (A) (A)
                 (A) (A) (A) (A) (A) (A) (A) (A) (A) (A) (A) (A)
                 (A) (A) (A) (A) (A) (A) (A) (A) (A) (A) (A) (A)
                 (A) (A) (A) (A) (A) (A) (A) (A) (A) (A) (A) (A)
                 (A) (A) (A) (A) (A) (A) (A) (A) (A) (A) (A) (A)
                 (A) (A) (A) (A) (A) (A) (A) (A) (A) (A) (A) (A)
                 (A) (A) (A)
     4 initial guesses have been made.
 Convergence on wavefunction:    0.001000000000000
 Iteration     1 Dimension     4 NMult     0 NNew      4
 CISAX will form     4 AO SS matrices at one time.
 New state      1 was old state      2
 Iteration     2 Dimension     6 NMult     4 NNew      2
 Iteration     3 Dimension     8 NMult     6 NNew      2
 Iteration     4 Dimension    10 NMult     8 NNew      2
 Iteration     5 Dimension    12 NMult    10 NNew      2
 ***********************************************************************
 Excited states from <AA,BB:AA,BB> singles matrix:
 ***********************************************************************
 
 Ground to excited state transition densities written to RWF  633
 Ground to excited state transition electric dipole moments (Au):
       state          X           Y           Z        Dip. S.      Osc.
         1        -0.0531      0.0238     -0.0010      0.0034      0.0005
 Ground to excited state transition velocity dipole moments (Au):
       state          X           Y           Z        Dip. S.      Osc.
         1         0.0118     -0.0042      0.0001      0.0002      0.0005
 Ground to excited state transition magnetic dipole moments (Au):
       state          X           Y           Z
         1        -0.0233     -0.0002     -0.0139
 Ground to excited state transition velocity quadrupole moments (Au):
       state          XX          YY          ZZ          XY          XZ          YZ
         1        -0.0099      0.0037      0.0050     -0.0022     -0.0069     -0.0082
 <0|del|b> * <b|rxdel|0> + <0|del|b> * <b|delr+rdel|0>
 Rotatory Strengths (R) in cgs (10**-40 erg-esu-cm/Gauss)
       state          XX          YY          ZZ    R(velocity)    E-M Angle
         1        -0.0521     -0.6424     -0.2560     -0.3168      144.30
 1/2[<0|r|b>*<b|rxdel|0> + (<0|rxdel|b>*<b|r|0>)*]
 Rotatory Strengths (R) in cgs (10**-40 erg-esu-cm/Gauss)
       state          XX          YY          ZZ     R(length)
         1        -0.8755      0.0037     -0.0097     -0.2938
  1/2[<0|del|b>*<b|r|0> + (<0|r|b>*<b|del|0>)*] (Au)
       state          X           Y           Z        Dip. S.   Osc.(frdel)
         1        -0.0006     -0.0001     -0.0000      0.0007      0.0005

 Excitation energies and oscillator strengths:
 
 Excited State   1:      Singlet-A      5.5709 eV  222.56 nm  f=0.0005  <S**2>=0.000
      20 -> 22        -0.49070
      21 -> 22         0.10159
      21 -> 23         0.49385
 This state for optimization and/or second-order correction.
 Total Energy, E(TD-HF/TD-DFT) =  -232.009710688    
 Copying the excited state density for this state as the 1-particle RhoCI density.
 SavETr:  write IOETrn=   770 NScale= 10 NData=  16 NLR=1 NState=    1 LETran=      28.

 **********************************************************************

            Population analysis using the SCF Density.

 **********************************************************************

 Orbital symmetries:
       Occupied  (A) (A) (A) (A) (A) (A) (A) (A) (A) (A) (A) (A)
                 (A) (A) (A) (A) (A) (A) (A) (A) (A)
       Virtual   (A) (A) (A) (A) (A) (A) (A) (A) (A) (A) (A) (A)
                 (A) (A) (A) (A) (A) (A) (A) (A) (A) (A) (A) (A)
                 (A) (A) (A) (A) (A) (A) (A) (A) (A) (A) (A) (A)
                 (A) (A) (A) (A) (A) (A) (A) (A) (A) (A) (A) (A)
                 (A) (A) (A) (A) (A) (A) (A) (A) (A) (A) (A) (A)
                 (A) (A) (A) (A) (A) (A) (A) (A) (A) (A) (A) (A)
                 (A) (A) (A) (A) (A) (A) (A) (A) (A) (A) (A) (A)
                 (A) (A) (A) (A) (A) (A) (A) (A) (A) (A) (A) (A)
                 (A) (A) (A)
 The electronic state is 1-A.
 Alpha  occ. eigenvalues --  -10.19439 -10.19371 -10.19091 -10.18925 -10.18649
 Alpha  occ. eigenvalues --  -10.18420  -0.85699  -0.75201  -0.73779  -0.60200
 Alpha  occ. eigenvalues --   -0.59105  -0.51711  -0.45159  -0.44085  -0.41886
 Alpha  occ. eigenvalues --   -0.40186  -0.36708  -0.34499  -0.32137  -0.25718
 Alpha  occ. eigenvalues --   -0.24384
 Alpha virt. eigenvalues --   -0.00560   0.00690   0.06858   0.12322   0.14022
 Alpha virt. eigenvalues --    0.16224   0.16826   0.17604   0.19222   0.28813
 Alpha virt. eigenvalues --    0.30390   0.31609   0.33900   0.45895   0.49724
 Alpha virt. eigenvalues --    0.53501   0.54861   0.56498   0.59061   0.59384
 Alpha virt. eigenvalues --    0.60729   0.61053   0.62325   0.63781   0.64773
 Alpha virt. eigenvalues --    0.66496   0.66848   0.74744   0.76682   0.77991
 Alpha virt. eigenvalues --    0.79936   0.82055   0.85181   0.90969   0.93707
 Alpha virt. eigenvalues --    0.94420   0.96214   1.03248   1.06748   1.09254
 Alpha virt. eigenvalues --    1.11647   1.15444   1.26590   1.27855   1.29545
 Alpha virt. eigenvalues --    1.38032   1.42735   1.44867   1.51812   1.53895
 Alpha virt. eigenvalues --    1.69374   1.74590   1.77031   1.79897   1.85883
 Alpha virt. eigenvalues --    1.90688   1.97724   1.98317   1.98549   2.02136
 Alpha virt. eigenvalues --    2.06872   2.09702   2.11808   2.25399   2.27407
 Alpha virt. eigenvalues --    2.30068   2.31432   2.33300   2.37766   2.39565
 Alpha virt. eigenvalues --    2.39870   2.43235   2.44433   2.48807   2.49891
 Alpha virt. eigenvalues --    2.53475   2.54720   2.55822   2.59149   2.68466
 Alpha virt. eigenvalues --    2.73903   2.78267   2.82965   2.97805   2.98254
 Alpha virt. eigenvalues --    3.07661   3.13384   3.20889   3.24584   3.32410
 Alpha virt. eigenvalues --    3.47234   3.54975   3.91859   4.14102   4.16123
 Alpha virt. eigenvalues --    4.18083   4.43529   4.44857   4.81671
          Condensed to atoms (all electrons):
               1          2          3          4          5          6
     1  C    4.827504   0.527182  -0.033184  -0.041769  -0.035501   0.566394
     2  C    0.527182   4.824115   0.564145  -0.039493  -0.048035  -0.044310
     3  C   -0.033184   0.564145   4.825155   0.522331  -0.028603  -0.044473
     4  C   -0.041769  -0.039493   0.522331   4.811361   0.546940  -0.031246
     5  C   -0.035501  -0.048035  -0.028603   0.546940   4.837900   0.536941
     6  C    0.566394  -0.044310  -0.044473  -0.031246   0.536941   4.782007
     7  H    0.351820  -0.033659   0.004283   0.000445   0.004326  -0.037639
     8  H   -0.046392   0.006285   0.000195   0.003601  -0.036921   0.362947
     9  H    0.005261   0.000506   0.006682  -0.049848   0.366976  -0.040866
    10  H    0.000495   0.005380  -0.045133   0.381819  -0.043330   0.005306
    11  H    0.005206  -0.042496   0.356219  -0.038024   0.004332   0.000676
    12  H   -0.040819   0.362450  -0.039929   0.004831   0.000675   0.005377
               7          8          9         10         11         12
     1  C    0.351820  -0.046392   0.005261   0.000495   0.005206  -0.040819
     2  C   -0.033659   0.006285   0.000506   0.005380  -0.042496   0.362450
     3  C    0.004283   0.000195   0.006682  -0.045133   0.356219  -0.039929
     4  C    0.000445   0.003601  -0.049848   0.381819  -0.038024   0.004831
     5  C    0.004326  -0.036921   0.366976  -0.043330   0.004332   0.000675
     6  C   -0.037639   0.362947  -0.040866   0.005306   0.000676   0.005377
     7  H    0.649041  -0.009496  -0.000148   0.000013  -0.000162  -0.005453
     8  H   -0.009496   0.637463  -0.004497  -0.000117   0.000016  -0.000259
     9  H   -0.000148  -0.004497   0.641990  -0.009133  -0.000212   0.000012
    10  H    0.000013  -0.000117  -0.009133   0.622977  -0.004439  -0.000210
    11  H   -0.000162   0.000016  -0.000212  -0.004439   0.650187  -0.009331
    12  H   -0.005453  -0.000259   0.000012  -0.000210  -0.009331   0.640411
 Mulliken charges:
               1
     1  C   -0.086197
     2  C   -0.082069
     3  C   -0.087688
     4  C   -0.070949
     5  C   -0.105700
     6  C   -0.061115
     7  H    0.076626
     8  H    0.087173
     9  H    0.083275
    10  H    0.086371
    11  H    0.078027
    12  H    0.082244
 Sum of Mulliken charges =  -0.00000
 Mulliken charges with hydrogens summed into heavy atoms:
               1
     1  C   -0.009570
     2  C    0.000175
     3  C   -0.009661
     4  C    0.015422
     5  C   -0.022425
     6  C    0.026058
 Electronic spatial extent (au):  <R**2>=            455.3420
 Charge=             -0.0000 electrons
 Dipole moment (field-independent basis, Debye):
    X=             -0.0074    Y=             -0.1119    Z=              0.0579  Tot=              0.1262
 Quadrupole moment (field-independent basis, Debye-Ang):
   XX=            -31.5841   YY=            -32.3280   ZZ=            -38.4616
   XY=              0.5801   XZ=              0.1052   YZ=             -0.1550
 Traceless Quadrupole moment (field-independent basis, Debye-Ang):
   XX=              2.5405   YY=              1.7965   ZZ=             -4.3370
   XY=              0.5801   XZ=              0.1052   YZ=             -0.1550
 Octapole moment (field-independent basis, Debye-Ang**2):
  XXX=              1.2082  YYY=             -0.1639  ZZZ=              0.1307  XYY=             -1.7534
  XXY=             -0.9797  XXZ=              0.0442  XZZ=             -0.2679  YZZ=             -0.2533
  YYZ=              0.3873  XYZ=              0.0469
 Hexadecapole moment (field-independent basis, Debye-Ang**3):
 XXXX=           -278.2616 YYYY=           -267.7699 ZZZZ=            -40.4599 XXXY=              2.1293
 XXXZ=              0.3380 YYYX=              3.6501 YYYZ=              1.2938 ZZZX=              0.0376
 ZZZY=             -0.1282 XXYY=            -90.6655 XXZZ=            -61.8164 YYZZ=            -59.0030
 XXYZ=             -2.6609 YYXZ=              0.5720 ZZXY=              0.2356
 N-N= 2.042097934546D+02 E-N=-9.456913063721D+02  KE= 2.299531818797D+02
 1\1\GINC-DESKTOP-PRN5QE3\SP\RB3LYP TD-FC\6-31G(d,p)\C6H6\SHOHEI\10-Nov
 -2023\0\\# TD=(NStates=1) B3LYP/6-31G(d,p)\\ABSSPCT\\0,1\C,0,-0.287677
 665,1.3483142622,-0.0032868765\C,0,1.0442832856,0.8514217573,0.0508318
 887\C,0,1.3025738966,-0.4590758194,-0.0663532653\C,0,0.2788490738,-1.3
 996660074,0.0161961888\C,0,-1.0379424255,-0.8744954027,0.0389844143\C,
 0,-1.3039968732,0.493997219,-0.035102249\H,0,-0.5067640199,2.534561398
 8,0.1183516955\H,0,-2.3157864409,1.0140380617,-0.1683879763\H,0,-1.769
 6868798,-1.6885185237,0.0519560267\H,0,0.4195579874,-2.3851847901,-0.0
 924386493\H,0,2.4214907035,-0.7104903406,0.1184260969\H,0,1.8568718835
 ,1.6241539048,-0.1114609281\\Version=EM64L-G16RevB.01\State=1-A\HF=-23
 2.2144383\RMSD=9.943e-09\PG=C01 [X(C6H6)]\\@


 FROM AN ANONYMOUS WRITER, ON PERSPECTIVE:

 MAN, DESPITE HIS ARTISTIC PRETENSIONS, HIS SOPHISTICATION AND MANY 
 ACCOMPLISHMENTS, OWES THE FACT OF HIS EXISTENCE TO A SIX-INCH LAYER OF 
 TOPSOIL AND THE FACT THAT IT RAINS.
 Job cpu time:       0 days  0 hours  3 minutes  1.4 seconds.
 Elapsed time:       0 days  0 hours  0 minutes 46.0 seconds.
 File lengths (MBytes):  RWF=    116 Int=      0 D2E=      0 Chk=      3 Scr=      1
 Normal termination of Gaussian 16 at Fri Nov 10 18:13:16 2023.
