 Entering Gaussian System, Link 0=g16
 Input=Geometry-319-.com
 Output=Geometry-319-.log
 Initial command:
 /home/shohei/gaussian/g16/l1.exe "/home/shohei/gaussian/scratch/Gau-29790.inp" -scrdir="/home/shohei/gaussian/scratch/"
 Entering Link 1 = /home/shohei/gaussian/g16/l1.exe PID=     29792.
  
 Copyright (c) 1988-2017, Gaussian, Inc.  All Rights Reserved.
  
 This is part of the Gaussian(R) 16 program.  It is based on
 the Gaussian(R) 09 system (copyright 2009, Gaussian, Inc.),
 the Gaussian(R) 03 system (copyright 2003, Gaussian, Inc.),
 the Gaussian(R) 98 system (copyright 1998, Gaussian, Inc.),
 the Gaussian(R) 94 system (copyright 1995, Gaussian, Inc.),
 the Gaussian 92(TM) system (copyright 1992, Gaussian, Inc.),
 the Gaussian 90(TM) system (copyright 1990, Gaussian, Inc.),
 the Gaussian 88(TM) system (copyright 1988, Gaussian, Inc.),
 the Gaussian 86(TM) system (copyright 1986, Carnegie Mellon
 University), and the Gaussian 82(TM) system (copyright 1983,
 Carnegie Mellon University). Gaussian is a federally registered
 trademark of Gaussian, Inc.
  
 This software contains proprietary and confidential information,
 including trade secrets, belonging to Gaussian, Inc.
  
 This software is provided under written license and may be
 used, copied, transmitted, or stored only in accord with that
 written license.
  
 The following legend is applicable only to US Government
 contracts under FAR:
  
                    RESTRICTED RIGHTS LEGEND
  
 Use, reproduction and disclosure by the US Government is
 subject to restrictions as set forth in subparagraphs (a)
 and (c) of the Commercial Computer Software - Restricted
 Rights clause in FAR 52.227-19.
  
 Gaussian, Inc.
 340 Quinnipiac St., Bldg. 40, Wallingford CT 06492
  
  
 ---------------------------------------------------------------
 Warning -- This program may not be used in any manner that
 competes with the business of Gaussian, Inc. or will provide
 assistance to any competitor of Gaussian, Inc.  The licensee
 of this program is prohibited from giving any competitor of
 Gaussian, Inc. access to this program.  By using this program,
 the user acknowledges that Gaussian, Inc. is engaged in the
 business of creating and licensing software in the field of
 computational chemistry and represents and warrants to the
 licensee that it is not a competitor of Gaussian, Inc. and that
 it will not use this program in any manner prohibited above.
 ---------------------------------------------------------------
  

 Cite this work as:
 Gaussian 16, Revision B.01,
 M. J. Frisch, G. W. Trucks, H. B. Schlegel, G. E. Scuseria, 
 M. A. Robb, J. R. Cheeseman, G. Scalmani, V. Barone, 
 G. A. Petersson, H. Nakatsuji, X. Li, M. Caricato, A. V. Marenich, 
 J. Bloino, B. G. Janesko, R. Gomperts, B. Mennucci, H. P. Hratchian, 
 J. V. Ortiz, A. F. Izmaylov, J. L. Sonnenberg, D. Williams-Young, 
 F. Ding, F. Lipparini, F. Egidi, J. Goings, B. Peng, A. Petrone, 
 T. Henderson, D. Ranasinghe, V. G. Zakrzewski, J. Gao, N. Rega, 
 G. Zheng, W. Liang, M. Hada, M. Ehara, K. Toyota, R. Fukuda, 
 J. Hasegawa, M. Ishida, T. Nakajima, Y. Honda, O. Kitao, H. Nakai, 
 T. Vreven, K. Throssell, J. A. Montgomery, Jr., J. E. Peralta, 
 F. Ogliaro, M. J. Bearpark, J. J. Heyd, E. N. Brothers, K. N. Kudin, 
 V. N. Staroverov, T. A. Keith, R. Kobayashi, J. Normand, 
 K. Raghavachari, A. P. Rendell, J. C. Burant, S. S. Iyengar, 
 J. Tomasi, M. Cossi, J. M. Millam, M. Klene, C. Adamo, R. Cammi, 
 J. W. Ochterski, R. L. Martin, K. Morokuma, O. Farkas, 
 J. B. Foresman, and D. J. Fox, Gaussian, Inc., Wallingford CT, 2016.
 
 ******************************************
 Gaussian 16:  EM64L-G16RevB.01 20-Dec-2017
                10-Nov-2023 
 ******************************************
 %nproc=4
 Will use up to    4 processors via shared memory.
 %Mem=2Gb
 ---------------------------------
 # TD=(NStates=1) B3LYP/6-31G(d,p)
 ---------------------------------
 1/38=1,172=1/1;
 2/12=2,17=6,18=5,40=1/2;
 3/5=1,6=6,7=101,11=9,25=1,30=1,74=-5/1,2,3,8;
 4//1;
 5/5=2,38=5/2;
 8/6=1,10=2,108=1/1;
 9/41=1,42=1,70=2/14;
 6/7=2,8=2,9=2,10=2/1;
 99/5=1,9=1/99;
 -------
 ABSSPCT
 -------
 Symbolic Z-matrix:
 Charge =  0 Multiplicity = 1
 6                    -0.21819   1.33196  -0.03148 
 6                     1.07997   0.95461   0.02211 
 6                     1.26903  -0.43788   0.0129 
 6                     0.23152  -1.37539   0.00827 
 6                    -1.08708  -0.90421  -0.09734 
 6                    -1.26773   0.41386   0.07872 
 1                    -0.45269   2.49665  -0.12358 
 1                    -2.29354   0.86867   0.08639 
 1                    -1.96065  -1.59413   0.2039 
 1                     0.53636  -2.38743   0.01331 
 1                     2.31461  -0.93445   0.12938 
 1                     1.7993    1.78776  -0.17201 
 
                          Input orientation:                          
 ---------------------------------------------------------------------
 Center     Atomic      Atomic             Coordinates (Angstroms)
 Number     Number       Type             X           Y           Z
 ---------------------------------------------------------------------
      1          6           0       -0.218189    1.331957   -0.031483
      2          6           0        1.079971    0.954611    0.022106
      3          6           0        1.269026   -0.437880    0.012900
      4          6           0        0.231518   -1.375393    0.008265
      5          6           0       -1.087084   -0.904212   -0.097340
      6          6           0       -1.267729    0.413860    0.078725
      7          1           0       -0.452685    2.496647   -0.123584
      8          1           0       -2.293542    0.868672    0.086393
      9          1           0       -1.960653   -1.594131    0.203898
     10          1           0        0.536356   -2.387429    0.013313
     11          1           0        2.314612   -0.934445    0.129380
     12          1           0        1.799298    1.787761   -0.172011
 ---------------------------------------------------------------------
                    Distance matrix (angstroms):
                    1          2          3          4          5
     1  C    0.000000
     2  C    1.352952   0.000000
     3  C    2.312163   1.405296   0.000000
     4  C    2.744733   2.479715   1.398348   0.000000
     5  C    2.399952   2.857554   2.404344   1.404234   0.000000
     6  C    1.398779   2.409836   2.676737   2.335408   1.341993
     7  H    1.191627   2.179021   3.405050   3.934236   3.459624
     8  H    2.129699   3.375219   3.795309   3.379033   2.152306
     9  H    3.413734   3.971716   3.435728   2.211726   1.153194
    10  H    3.795415   3.385975   2.082678   1.056961   2.201756
    11  H    3.402577   2.259288   1.163355   2.132694   3.409376
    12  H    2.073104   1.117700   2.295400   3.534965   3.947594
                    6          7          8          9         10
     6  C    0.000000
     7  H    2.245713   0.000000
     8  H    1.122143   2.466404   0.000000
     9  H    2.127872   4.372148   2.487976   0.000000
    10  H    3.332599   4.985092   4.314610   2.626918   0.000000
    11  H    3.828009   4.415237   4.948551   4.326503   2.299310
    12  H    3.370034   2.361417   4.202718   5.071069   4.365957
                   11         12
    11  H    0.000000
    12  H    2.786897   0.000000
 Stoichiometry    C6H6
 Framework group  C1[X(C6H6)]
 Deg. of freedom    30
 Full point group                 C1      NOp   1
 Largest Abelian subgroup         C1      NOp   1
 Largest concise Abelian subgroup C1      NOp   1
                         Standard orientation:                         
 ---------------------------------------------------------------------
 Center     Atomic      Atomic             Coordinates (Angstroms)
 Number     Number       Type             X           Y           Z
 ---------------------------------------------------------------------
      1          6           0        1.008716   -0.892310    0.021825
      2          6           0        1.380359    0.407439   -0.033076
      3          6           0        0.302765    1.309199   -0.011195
      4          6           0       -1.043228    0.930558    0.006410
      5          6           0       -1.345822   -0.436576    0.112499
      6          6           0       -0.328423   -1.291258   -0.075548
      7          1           0        1.870358   -1.711369    0.103610
      8          1           0       -0.490055   -2.401670   -0.083684
      9          1           0       -2.398071   -0.807787   -0.178759
     10          1           0       -1.737330    1.727664    0.009937
     11          1           0        0.438334    2.458822   -0.126874
     12          1           0        2.470564    0.572020    0.150276
 ---------------------------------------------------------------------
 Rotational constants (GHZ):           6.0215346           5.5178268           2.8898852
 Standard basis: 6-31G(d,p) (6D, 7F)
 There are   120 symmetry adapted cartesian basis functions of A   symmetry.
 There are   120 symmetry adapted basis functions of A   symmetry.
   120 basis functions,   210 primitive gaussians,   120 cartesian basis functions
    21 alpha electrons       21 beta electrons
       nuclear repulsion energy       203.9888518546 Hartrees.
 NAtoms=   12 NActive=   12 NUniq=   12 SFac= 1.00D+00 NAtFMM=   60 NAOKFM=F Big=F
 Integral buffers will be    131072 words long.
 Regular integral format.
 Two-electron integral symmetry is turned on.
 One-electron integrals computed using PRISM.
 NBasis=   120 RedAO= T EigKep=  9.83D-04  NBF=   120
 NBsUse=   120 1.00D-06 EigRej= -1.00D+00 NBFU=   120
 ExpMin= 1.61D-01 ExpMax= 3.05D+03 ExpMxC= 4.57D+02 IAcc=3 IRadAn=         5 AccDes= 0.00D+00
 Harris functional with IExCor=  402 and IRadAn=       5 diagonalized for initial guess.
 HarFok:  IExCor=  402 AccDes= 0.00D+00 IRadAn=         5 IDoV= 1 UseB2=F ITyADJ=14
 ICtDFT=  3500011 ScaDFX=  1.000000  1.000000  1.000000  1.000000
 FoFCou: FMM=F IPFlag=           0 FMFlag=      100000 FMFlg1=           0
         NFxFlg=           0 DoJE=T BraDBF=F KetDBF=T FulRan=T
         wScrn=  0.000000 ICntrl=       500 IOpCl=  0 I1Cent=   200000004 NGrid=           0
         NMat0=    1 NMatS0=      1 NMatT0=    0 NMatD0=    1 NMtDS0=    0 NMtDT0=    0
 Petite list used in FoFCou.
 Keep R1 ints in memory in canonical form, NReq=30147728.
 Requested convergence on RMS density matrix=1.00D-08 within 128 cycles.
 Requested convergence on MAX density matrix=1.00D-06.
 Requested convergence on             energy=1.00D-06.
 No special actions if energy rises.
 Integral accuracy reduced to 1.0D-05 until final iterations.
 Initial convergence to 1.0D-05 achieved.  Increase integral accuracy.
 SCF Done:  E(RB3LYP) =  -232.219947788     A.U. after   13 cycles
            NFock= 13  Conv=0.38D-08     -V/T= 2.0103
 DoSCS=F DFT=T ScalE2(SS,OS)=  1.000000  1.000000
 ExpMin= 1.61D-01 ExpMax= 3.05D+03 ExpMxC= 4.57D+02 IAcc=3 IRadAn=         5 AccDes= 0.00D+00
 HarFok:  IExCor=  205 AccDes= 0.00D+00 IRadAn=         5 IDoV=-2 UseB2=F ITyADJ=14
 ICtDFT= 12500011 ScaDFX=  1.000000  1.000000  1.000000  1.000000
 Range of M.O.s used for correlation:     7   120
 NBasis=   120 NAE=    21 NBE=    21 NFC=     6 NFV=     0
 NROrb=    114 NOA=    15 NOB=    15 NVA=    99 NVB=    99
 Keep R1, R2, and R3 ints in memory in canonical form, NReq=84032236.
 Orbital symmetries:
       Occupied  (A) (A) (A) (A) (A) (A) (A) (A) (A) (A) (A) (A)
                 (A) (A) (A) (A) (A) (A) (A) (A) (A)
       Virtual   (A) (A) (A) (A) (A) (A) (A) (A) (A) (A) (A) (A)
                 (A) (A) (A) (A) (A) (A) (A) (A) (A) (A) (A) (A)
                 (A) (A) (A) (A) (A) (A) (A) (A) (A) (A) (A) (A)
                 (A) (A) (A) (A) (A) (A) (A) (A) (A) (A) (A) (A)
                 (A) (A) (A) (A) (A) (A) (A) (A) (A) (A) (A) (A)
                 (A) (A) (A) (A) (A) (A) (A) (A) (A) (A) (A) (A)
                 (A) (A) (A) (A) (A) (A) (A) (A) (A) (A) (A) (A)
                 (A) (A) (A) (A) (A) (A) (A) (A) (A) (A) (A) (A)
                 (A) (A) (A)
     4 initial guesses have been made.
 Convergence on wavefunction:    0.001000000000000
 Iteration     1 Dimension     4 NMult     0 NNew      4
 CISAX will form     4 AO SS matrices at one time.
 Iteration     2 Dimension     6 NMult     4 NNew      2
 Iteration     3 Dimension     8 NMult     6 NNew      2
 Iteration     4 Dimension    10 NMult     8 NNew      2
 Iteration     5 Dimension    12 NMult    10 NNew      2
 ***********************************************************************
 Excited states from <AA,BB:AA,BB> singles matrix:
 ***********************************************************************
 
 Ground to excited state transition densities written to RWF  633
 Ground to excited state transition electric dipole moments (Au):
       state          X           Y           Z        Dip. S.      Osc.
         1        -0.0876      0.2200      0.0030      0.0561      0.0076
 Ground to excited state transition velocity dipole moments (Au):
       state          X           Y           Z        Dip. S.      Osc.
         1         0.0183     -0.0450     -0.0010      0.0024      0.0078
 Ground to excited state transition magnetic dipole moments (Au):
       state          X           Y           Z
         1         0.0126      0.0124      0.0076
 Ground to excited state transition velocity quadrupole moments (Au):
       state          XX          YY          ZZ          XY          XZ          YZ
         1        -0.0044      0.0013      0.0019      0.0060     -0.0146      0.0057
 <0|del|b> * <b|rxdel|0> + <0|del|b> * <b|delr+rdel|0>
 Rotatory Strengths (R) in cgs (10**-40 erg-esu-cm/Gauss)
       state          XX          YY          ZZ    R(velocity)    E-M Angle
         1        -2.1474      0.5851      0.3928     -0.3898      110.89
 1/2[<0|r|b>*<b|rxdel|0> + (<0|rxdel|b>*<b|r|0>)*]
 Rotatory Strengths (R) in cgs (10**-40 erg-esu-cm/Gauss)
       state          XX          YY          ZZ     R(length)
         1         0.7837     -1.9315     -0.0162     -0.3880
  1/2[<0|del|b>*<b|r|0> + (<0|r|b>*<b|del|0>)*] (Au)
       state          X           Y           Z        Dip. S.   Osc.(frdel)
         1        -0.0016     -0.0099     -0.0000      0.0115      0.0077

 Excitation energies and oscillator strengths:
 
 Excited State   1:      Singlet-A      5.4972 eV  225.54 nm  f=0.0076  <S**2>=0.000
      20 -> 23         0.41775
      21 -> 22         0.56894
 This state for optimization and/or second-order correction.
 Total Energy, E(TD-HF/TD-DFT) =  -232.017931026    
 Copying the excited state density for this state as the 1-particle RhoCI density.
 SavETr:  write IOETrn=   770 NScale= 10 NData=  16 NLR=1 NState=    1 LETran=      28.

 **********************************************************************

            Population analysis using the SCF Density.

 **********************************************************************

 Orbital symmetries:
       Occupied  (A) (A) (A) (A) (A) (A) (A) (A) (A) (A) (A) (A)
                 (A) (A) (A) (A) (A) (A) (A) (A) (A)
       Virtual   (A) (A) (A) (A) (A) (A) (A) (A) (A) (A) (A) (A)
                 (A) (A) (A) (A) (A) (A) (A) (A) (A) (A) (A) (A)
                 (A) (A) (A) (A) (A) (A) (A) (A) (A) (A) (A) (A)
                 (A) (A) (A) (A) (A) (A) (A) (A) (A) (A) (A) (A)
                 (A) (A) (A) (A) (A) (A) (A) (A) (A) (A) (A) (A)
                 (A) (A) (A) (A) (A) (A) (A) (A) (A) (A) (A) (A)
                 (A) (A) (A) (A) (A) (A) (A) (A) (A) (A) (A) (A)
                 (A) (A) (A) (A) (A) (A) (A) (A) (A) (A) (A) (A)
                 (A) (A) (A)
 The electronic state is 1-A.
 Alpha  occ. eigenvalues --  -10.19729 -10.19291 -10.19222 -10.19204 -10.18869
 Alpha  occ. eigenvalues --  -10.18631  -0.85776  -0.75113  -0.73683  -0.59778
 Alpha  occ. eigenvalues --   -0.59078  -0.51564  -0.44524  -0.43959  -0.42181
 Alpha  occ. eigenvalues --   -0.40086  -0.36791  -0.33813  -0.32582  -0.25784
 Alpha  occ. eigenvalues --   -0.24454
 Alpha virt. eigenvalues --   -0.00440   0.00163   0.07062   0.12545   0.13171
 Alpha virt. eigenvalues --    0.15117   0.17031   0.18177   0.18711   0.28850
 Alpha virt. eigenvalues --    0.29931   0.32445   0.33498   0.46075   0.47662
 Alpha virt. eigenvalues --    0.52640   0.54699   0.56190   0.58766   0.59186
 Alpha virt. eigenvalues --    0.60360   0.60568   0.62240   0.63582   0.64393
 Alpha virt. eigenvalues --    0.66186   0.66547   0.74389   0.77010   0.77495
 Alpha virt. eigenvalues --    0.79523   0.81618   0.83625   0.89655   0.92898
 Alpha virt. eigenvalues --    0.93830   0.95506   0.97220   1.05609   1.10158
 Alpha virt. eigenvalues --    1.13180   1.16651   1.21815   1.29253   1.31207
 Alpha virt. eigenvalues --    1.39914   1.42478   1.44492   1.45944   1.56273
 Alpha virt. eigenvalues --    1.69863   1.72999   1.75246   1.80691   1.85067
 Alpha virt. eigenvalues --    1.89980   1.96319   1.96915   1.98514   2.03133
 Alpha virt. eigenvalues --    2.06991   2.10267   2.11705   2.24658   2.26886
 Alpha virt. eigenvalues --    2.28952   2.30082   2.33217   2.35997   2.37051
 Alpha virt. eigenvalues --    2.39724   2.41601   2.44122   2.47127   2.49343
 Alpha virt. eigenvalues --    2.50945   2.54086   2.55200   2.56858   2.65912
 Alpha virt. eigenvalues --    2.71070   2.77290   2.83555   2.95338   2.99513
 Alpha virt. eigenvalues --    3.03695   3.15516   3.16512   3.22364   3.29437
 Alpha virt. eigenvalues --    3.43452   3.47178   3.85075   4.14426   4.16289
 Alpha virt. eigenvalues --    4.18406   4.44178   4.44912   4.78756
          Condensed to atoms (all electrons):
               1          2          3          4          5          6
     1  C    4.821794   0.558105  -0.044401  -0.042568  -0.034151   0.545833
     2  C    0.558105   4.804290   0.529870  -0.036027  -0.040192  -0.043992
     3  C   -0.044401   0.529870   4.839040   0.567080  -0.037283  -0.043702
     4  C   -0.042568  -0.036027   0.567080   4.816971   0.511548  -0.044779
     5  C   -0.034151  -0.040192  -0.037283   0.511548   4.851862   0.561384
     6  C    0.545833  -0.043992  -0.043702  -0.044779   0.561384   4.799202
     7  H    0.353690  -0.041449   0.005302   0.000497   0.004802  -0.036414
     8  H   -0.041808   0.005818   0.000667   0.005193  -0.044006   0.364387
     9  H    0.004700   0.000610   0.004208  -0.038020   0.358602  -0.039962
    10  H    0.000568   0.005147  -0.041553   0.375091  -0.041952   0.004689
    11  H    0.005035  -0.039634   0.355786  -0.044099   0.005947   0.000520
    12  H   -0.043727   0.366805  -0.034183   0.003171   0.000317   0.005476
               7          8          9         10         11         12
     1  C    0.353690  -0.041808   0.004700   0.000568   0.005035  -0.043727
     2  C   -0.041449   0.005818   0.000610   0.005147  -0.039634   0.366805
     3  C    0.005302   0.000667   0.004208  -0.041553   0.355786  -0.034183
     4  C    0.000497   0.005193  -0.038020   0.375091  -0.044099   0.003171
     5  C    0.004802  -0.044006   0.358602  -0.041952   0.005947   0.000317
     6  C   -0.036414   0.364387  -0.039962   0.004689   0.000520   0.005476
     7  H    0.658029  -0.007842  -0.000149   0.000013  -0.000176  -0.008695
     8  H   -0.007842   0.644676  -0.007625  -0.000201   0.000013  -0.000238
     9  H   -0.000149  -0.007625   0.637303  -0.004208  -0.000181   0.000016
    10  H    0.000013  -0.000201  -0.004208   0.622715  -0.010360  -0.000120
    11  H   -0.000176   0.000013  -0.000181  -0.010360   0.658157  -0.003647
    12  H   -0.008695  -0.000238   0.000016  -0.000120  -0.003647   0.618867
 Mulliken charges:
               1
     1  C   -0.083071
     2  C   -0.069350
     3  C   -0.100829
     4  C   -0.074059
     5  C   -0.096878
     6  C   -0.072642
     7  H    0.072392
     8  H    0.080965
     9  H    0.084705
    10  H    0.090172
    11  H    0.072639
    12  H    0.095958
 Sum of Mulliken charges =  -0.00000
 Mulliken charges with hydrogens summed into heavy atoms:
               1
     1  C   -0.010679
     2  C    0.026608
     3  C   -0.028191
     4  C    0.016112
     5  C   -0.012173
     6  C    0.008323
 Electronic spatial extent (au):  <R**2>=            455.7425
 Charge=             -0.0000 electrons
 Dipole moment (field-independent basis, Debye):
    X=              0.0608    Y=              0.0051    Z=             -0.0666  Tot=              0.0903
 Quadrupole moment (field-independent basis, Debye-Ang):
   XX=            -31.7312   YY=            -32.3973   ZZ=            -38.5101
   XY=             -0.5203   XZ=              0.7959   YZ=             -0.0097
 Traceless Quadrupole moment (field-independent basis, Debye-Ang):
   XX=              2.4817   YY=              1.8156   ZZ=             -4.2972
   XY=             -0.5203   XZ=              0.7959   YZ=             -0.0097
 Octapole moment (field-independent basis, Debye-Ang**2):
  XXX=              1.9780  YYY=              0.5160  ZZZ=             -0.0655  XYY=             -1.4829
  XXY=             -0.1870  XXZ=              0.0271  XZZ=             -0.1328  YZZ=             -0.0149
  YYZ=             -0.6022  XYZ=             -0.5207
 Hexadecapole moment (field-independent basis, Debye-Ang**3):
 XXXX=           -278.5373 YYYY=           -265.8666 ZZZZ=            -40.9266 XXXY=             -0.8842
 XXXZ=              5.8276 YYYX=             -3.9671 YYYZ=             -1.0032 ZZZX=              0.6516
 ZZZY=              0.0612 XXYY=            -92.7308 XXZZ=            -61.9906 YYZZ=            -59.2395
 XXYZ=              1.0066 YYXZ=              0.7896 ZZXY=             -0.0417
 N-N= 2.039888518546D+02 E-N=-9.451735058611D+02  KE= 2.298468107727D+02
 1\1\GINC-DESKTOP-PRN5QE3\SP\RB3LYP TD-FC\6-31G(d,p)\C6H6\SHOHEI\10-Nov
 -2023\0\\# TD=(NStates=1) B3LYP/6-31G(d,p)\\ABSSPCT\\0,1\C,0,-0.218188
 8514,1.3319568005,-0.0314833093\C,0,1.0799705379,0.9546113119,0.022105
 977\C,0,1.2690261267,-0.4378797531,0.0128996343\C,0,0.2315178853,-1.37
 5393165,0.0082650943\C,0,-1.0870835414,-0.9042124242,-0.0973403304\C,0
 ,-1.2677290577,0.4138597901,0.0787246214\H,0,-0.4526850752,2.496647236
 9,-0.1235842086\H,0,-2.2935419652,0.8686724086,0.086393182\H,0,-1.9606
 528545,-1.5941312625,0.2038984386\H,0,0.5363560263,-2.3874285913,0.013
 3130061\H,0,2.3146116129,-0.9344450957,0.1293795931\H,0,1.7992979768,1
 .7877614372,-0.1720112127\\Version=EM64L-G16RevB.01\State=1-A\HF=-232.
 2199478\RMSD=3.829e-09\PG=C01 [X(C6H6)]\\@


 MARY HAD A LITTLE LAMB
      HIS FEET WERE BLACK AS SOOT,
           AND EVERYWHERE THAT MARY WENT
                HIS SOOTY FOOT HE PUT.

                    -- NONAME
 Job cpu time:       0 days  0 hours  3 minutes  4.9 seconds.
 Elapsed time:       0 days  0 hours  0 minutes 46.9 seconds.
 File lengths (MBytes):  RWF=    116 Int=      0 D2E=      0 Chk=      3 Scr=      1
 Normal termination of Gaussian 16 at Fri Nov 10 17:04:16 2023.
