 Entering Gaussian System, Link 0=g16
 Input=Geometry-37-.com
 Output=Geometry-37-.log
 Initial command:
 /home/shohei/gaussian/g16/l1.exe "/home/shohei/gaussian/scratch/Gau-25904.inp" -scrdir="/home/shohei/gaussian/scratch/"
 Entering Link 1 = /home/shohei/gaussian/g16/l1.exe PID=     25906.
  
 Copyright (c) 1988-2017, Gaussian, Inc.  All Rights Reserved.
  
 This is part of the Gaussian(R) 16 program.  It is based on
 the Gaussian(R) 09 system (copyright 2009, Gaussian, Inc.),
 the Gaussian(R) 03 system (copyright 2003, Gaussian, Inc.),
 the Gaussian(R) 98 system (copyright 1998, Gaussian, Inc.),
 the Gaussian(R) 94 system (copyright 1995, Gaussian, Inc.),
 the Gaussian 92(TM) system (copyright 1992, Gaussian, Inc.),
 the Gaussian 90(TM) system (copyright 1990, Gaussian, Inc.),
 the Gaussian 88(TM) system (copyright 1988, Gaussian, Inc.),
 the Gaussian 86(TM) system (copyright 1986, Carnegie Mellon
 University), and the Gaussian 82(TM) system (copyright 1983,
 Carnegie Mellon University). Gaussian is a federally registered
 trademark of Gaussian, Inc.
  
 This software contains proprietary and confidential information,
 including trade secrets, belonging to Gaussian, Inc.
  
 This software is provided under written license and may be
 used, copied, transmitted, or stored only in accord with that
 written license.
  
 The following legend is applicable only to US Government
 contracts under FAR:
  
                    RESTRICTED RIGHTS LEGEND
  
 Use, reproduction and disclosure by the US Government is
 subject to restrictions as set forth in subparagraphs (a)
 and (c) of the Commercial Computer Software - Restricted
 Rights clause in FAR 52.227-19.
  
 Gaussian, Inc.
 340 Quinnipiac St., Bldg. 40, Wallingford CT 06492
  
  
 ---------------------------------------------------------------
 Warning -- This program may not be used in any manner that
 competes with the business of Gaussian, Inc. or will provide
 assistance to any competitor of Gaussian, Inc.  The licensee
 of this program is prohibited from giving any competitor of
 Gaussian, Inc. access to this program.  By using this program,
 the user acknowledges that Gaussian, Inc. is engaged in the
 business of creating and licensing software in the field of
 computational chemistry and represents and warrants to the
 licensee that it is not a competitor of Gaussian, Inc. and that
 it will not use this program in any manner prohibited above.
 ---------------------------------------------------------------
  

 Cite this work as:
 Gaussian 16, Revision B.01,
 M. J. Frisch, G. W. Trucks, H. B. Schlegel, G. E. Scuseria, 
 M. A. Robb, J. R. Cheeseman, G. Scalmani, V. Barone, 
 G. A. Petersson, H. Nakatsuji, X. Li, M. Caricato, A. V. Marenich, 
 J. Bloino, B. G. Janesko, R. Gomperts, B. Mennucci, H. P. Hratchian, 
 J. V. Ortiz, A. F. Izmaylov, J. L. Sonnenberg, D. Williams-Young, 
 F. Ding, F. Lipparini, F. Egidi, J. Goings, B. Peng, A. Petrone, 
 T. Henderson, D. Ranasinghe, V. G. Zakrzewski, J. Gao, N. Rega, 
 G. Zheng, W. Liang, M. Hada, M. Ehara, K. Toyota, R. Fukuda, 
 J. Hasegawa, M. Ishida, T. Nakajima, Y. Honda, O. Kitao, H. Nakai, 
 T. Vreven, K. Throssell, J. A. Montgomery, Jr., J. E. Peralta, 
 F. Ogliaro, M. J. Bearpark, J. J. Heyd, E. N. Brothers, K. N. Kudin, 
 V. N. Staroverov, T. A. Keith, R. Kobayashi, J. Normand, 
 K. Raghavachari, A. P. Rendell, J. C. Burant, S. S. Iyengar, 
 J. Tomasi, M. Cossi, J. M. Millam, M. Klene, C. Adamo, R. Cammi, 
 J. W. Ochterski, R. L. Martin, K. Morokuma, O. Farkas, 
 J. B. Foresman, and D. J. Fox, Gaussian, Inc., Wallingford CT, 2016.
 
 ******************************************
 Gaussian 16:  EM64L-G16RevB.01 20-Dec-2017
                10-Nov-2023 
 ******************************************
 %nproc=4
 Will use up to    4 processors via shared memory.
 %Mem=2Gb
 ---------------------------------
 # TD=(NStates=1) B3LYP/6-31G(d,p)
 ---------------------------------
 1/38=1,172=1/1;
 2/12=2,17=6,18=5,40=1/2;
 3/5=1,6=6,7=101,11=9,25=1,30=1,74=-5/1,2,3,8;
 4//1;
 5/5=2,38=5/2;
 8/6=1,10=2,108=1/1;
 9/41=1,42=1,70=2/14;
 6/7=2,8=2,9=2,10=2/1;
 99/5=1,9=1/99;
 -------
 ABSSPCT
 -------
 Symbolic Z-matrix:
 Charge =  0 Multiplicity = 1
 6                    -0.26198   1.3711    0.04662 
 6                     1.11626   0.90268  -0.01791 
 6                     1.31886  -0.4207   -0.02007 
 6                     0.23238  -1.35599   0.01857 
 6                    -1.05236  -0.92537   0.00626 
 6                    -1.32327   0.43397  -0.04599 
 1                    -0.50781   2.39852   0.03494 
 1                    -2.31325   0.83158   0.05484 
 1                    -1.94487  -1.61158  -0.01836 
 1                     0.21609  -2.39378   0.03186 
 1                     2.32844  -0.88341   0.0723 
 1                     1.86719   1.59939  -0.04653 
 
                          Input orientation:                          
 ---------------------------------------------------------------------
 Center     Atomic      Atomic             Coordinates (Angstroms)
 Number     Number       Type             X           Y           Z
 ---------------------------------------------------------------------
      1          6           0       -0.261981    1.371098    0.046621
      2          6           0        1.116261    0.902682   -0.017907
      3          6           0        1.318859   -0.420702   -0.020073
      4          6           0        0.232377   -1.355986    0.018572
      5          6           0       -1.052364   -0.925370    0.006259
      6          6           0       -1.323267    0.433966   -0.045991
      7          1           0       -0.507810    2.398524    0.034935
      8          1           0       -2.313250    0.831576    0.054836
      9          1           0       -1.944867   -1.611582   -0.018356
     10          1           0        0.216089   -2.393779    0.031856
     11          1           0        2.328438   -0.883414    0.072303
     12          1           0        1.867187    1.599388   -0.046533
 ---------------------------------------------------------------------
                    Distance matrix (angstroms):
                    1          2          3          4          5
     1  C    0.000000
     2  C    1.457095   0.000000
     3  C    2.390408   1.338804   0.000000
     4  C    2.771671   2.425730   1.434118   0.000000
     5  C    2.429012   2.836422   2.424476   1.355043   0.000000
     6  C    1.418845   2.484307   2.777042   2.372367   1.387052
     7  H    1.056492   2.208606   3.359730   3.826813   3.368328
     8  H    2.121050   3.431019   3.842659   3.356629   2.163112
     9  H    3.425303   3.961316   3.474206   2.192506   1.126079
    10  H    3.795137   3.417519   2.260936   1.038005   1.940581
    11  H    3.434204   2.160475   1.114399   2.149345   3.381707
    12  H    2.143397   1.024748   2.093353   3.378029   3.860177
                    6          7          8          9         10
     6  C    0.000000
     7  H    2.128617   0.000000
     8  H    1.071600   2.390677   0.000000
     9  H    2.138087   4.260155   2.471858   0.000000
    10  H    3.220531   4.846670   4.098902   2.298714   0.000000
    11  H    3.883869   4.337836   4.948410   4.335849   2.597086
    12  H    3.396646   2.507163   4.251572   4.984263   4.321764
                   11         12
    11  H    0.000000
    12  H    2.528078   0.000000
 Stoichiometry    C6H6
 Framework group  C1[X(C6H6)]
 Deg. of freedom    30
 Full point group                 C1      NOp   1
 Largest Abelian subgroup         C1      NOp   1
 Largest concise Abelian subgroup C1      NOp   1
                         Standard orientation:                         
 ---------------------------------------------------------------------
 Center     Atomic      Atomic             Coordinates (Angstroms)
 Number     Number       Type             X           Y           Z
 ---------------------------------------------------------------------
      1          6           0        0.496310    1.304473    0.045851
      2          6           0        1.427215    0.185358   -0.018371
      3          6           0        0.909014   -1.049087   -0.021050
      4          6           0       -0.505974   -1.279467    0.016774
      5          6           0       -1.376829   -0.241395    0.004173
      6          6           0       -0.898081    1.059387   -0.047575
      7          1           0        0.823118    2.309084    0.034530
      8          1           0       -1.534845    1.915383    0.053061
      9          1           0       -2.496294   -0.360623   -0.021081
     10          1           0       -1.061744   -2.156057    0.029590
     11          1           0        1.528393   -1.970874    0.071497
     12          1           0        2.431443    0.387468   -0.046407
 ---------------------------------------------------------------------
 Rotational constants (GHZ):           5.8847097           5.5126045           2.8487885
 Standard basis: 6-31G(d,p) (6D, 7F)
 There are   120 symmetry adapted cartesian basis functions of A   symmetry.
 There are   120 symmetry adapted basis functions of A   symmetry.
   120 basis functions,   210 primitive gaussians,   120 cartesian basis functions
    21 alpha electrons       21 beta electrons
       nuclear repulsion energy       203.6284525005 Hartrees.
 NAtoms=   12 NActive=   12 NUniq=   12 SFac= 1.00D+00 NAtFMM=   60 NAOKFM=F Big=F
 Integral buffers will be    131072 words long.
 Regular integral format.
 Two-electron integral symmetry is turned on.
 One-electron integrals computed using PRISM.
 NBasis=   120 RedAO= T EigKep=  6.35D-04  NBF=   120
 NBsUse=   120 1.00D-06 EigRej= -1.00D+00 NBFU=   120
 ExpMin= 1.61D-01 ExpMax= 3.05D+03 ExpMxC= 4.57D+02 IAcc=3 IRadAn=         5 AccDes= 0.00D+00
 Harris functional with IExCor=  402 and IRadAn=       5 diagonalized for initial guess.
 HarFok:  IExCor=  402 AccDes= 0.00D+00 IRadAn=         5 IDoV= 1 UseB2=F ITyADJ=14
 ICtDFT=  3500011 ScaDFX=  1.000000  1.000000  1.000000  1.000000
 FoFCou: FMM=F IPFlag=           0 FMFlag=      100000 FMFlg1=           0
         NFxFlg=           0 DoJE=T BraDBF=F KetDBF=T FulRan=T
         wScrn=  0.000000 ICntrl=       500 IOpCl=  0 I1Cent=   200000004 NGrid=           0
         NMat0=    1 NMatS0=      1 NMatT0=    0 NMatD0=    1 NMtDS0=    0 NMtDT0=    0
 Petite list used in FoFCou.
 Keep R1 ints in memory in canonical form, NReq=30147728.
 Requested convergence on RMS density matrix=1.00D-08 within 128 cycles.
 Requested convergence on MAX density matrix=1.00D-06.
 Requested convergence on             energy=1.00D-06.
 No special actions if energy rises.
 Integral accuracy reduced to 1.0D-05 until final iterations.
 Initial convergence to 1.0D-05 achieved.  Increase integral accuracy.
 SCF Done:  E(RB3LYP) =  -232.233326919     A.U. after   13 cycles
            NFock= 13  Conv=0.37D-08     -V/T= 2.0092
 DoSCS=F DFT=T ScalE2(SS,OS)=  1.000000  1.000000
 ExpMin= 1.61D-01 ExpMax= 3.05D+03 ExpMxC= 4.57D+02 IAcc=3 IRadAn=         5 AccDes= 0.00D+00
 HarFok:  IExCor=  205 AccDes= 0.00D+00 IRadAn=         5 IDoV=-2 UseB2=F ITyADJ=14
 ICtDFT= 12500011 ScaDFX=  1.000000  1.000000  1.000000  1.000000
 Range of M.O.s used for correlation:     7   120
 NBasis=   120 NAE=    21 NBE=    21 NFC=     6 NFV=     0
 NROrb=    114 NOA=    15 NOB=    15 NVA=    99 NVB=    99
 Keep R1, R2, and R3 ints in memory in canonical form, NReq=84032236.
 Orbital symmetries:
       Occupied  (A) (A) (A) (A) (A) (A) (A) (A) (A) (A) (A) (A)
                 (A) (A) (A) (A) (A) (A) (A) (A) (A)
       Virtual   (A) (A) (A) (A) (A) (A) (A) (A) (A) (A) (A) (A)
                 (A) (A) (A) (A) (A) (A) (A) (A) (A) (A) (A) (A)
                 (A) (A) (A) (A) (A) (A) (A) (A) (A) (A) (A) (A)
                 (A) (A) (A) (A) (A) (A) (A) (A) (A) (A) (A) (A)
                 (A) (A) (A) (A) (A) (A) (A) (A) (A) (A) (A) (A)
                 (A) (A) (A) (A) (A) (A) (A) (A) (A) (A) (A) (A)
                 (A) (A) (A) (A) (A) (A) (A) (A) (A) (A) (A) (A)
                 (A) (A) (A) (A) (A) (A) (A) (A) (A) (A) (A) (A)
                 (A) (A) (A)
     4 initial guesses have been made.
 Convergence on wavefunction:    0.001000000000000
 Iteration     1 Dimension     4 NMult     0 NNew      4
 CISAX will form     4 AO SS matrices at one time.
 New state      1 was old state      2
 Iteration     2 Dimension     6 NMult     4 NNew      2
 Iteration     3 Dimension     8 NMult     6 NNew      2
 Iteration     4 Dimension    10 NMult     8 NNew      2
 Iteration     5 Dimension    12 NMult    10 NNew      2
 ***********************************************************************
 Excited states from <AA,BB:AA,BB> singles matrix:
 ***********************************************************************
 
 Ground to excited state transition densities written to RWF  633
 Ground to excited state transition electric dipole moments (Au):
       state          X           Y           Z        Dip. S.      Osc.
         1        -0.0211      0.0434      0.0007      0.0023      0.0003
 Ground to excited state transition velocity dipole moments (Au):
       state          X           Y           Z        Dip. S.      Osc.
         1         0.0052     -0.0094     -0.0004      0.0001      0.0004
 Ground to excited state transition magnetic dipole moments (Au):
       state          X           Y           Z
         1        -0.0038      0.0082      0.0184
 Ground to excited state transition velocity quadrupole moments (Au):
       state          XX          YY          ZZ          XY          XZ          YZ
         1        -0.0023     -0.0133      0.0076     -0.0000      0.0048     -0.0060
 <0|del|b> * <b|rxdel|0> + <0|del|b> * <b|delr+rdel|0>
 Rotatory Strengths (R) in cgs (10**-40 erg-esu-cm/Gauss)
       state          XX          YY          ZZ    R(velocity)    E-M Angle
         1        -0.0689     -0.1024     -0.1938     -0.1217      118.29
 1/2[<0|r|b>*<b|rxdel|0> + (<0|rxdel|b>*<b|r|0>)*]
 Rotatory Strengths (R) in cgs (10**-40 erg-esu-cm/Gauss)
       state          XX          YY          ZZ     R(length)
         1        -0.0571     -0.2526     -0.0086     -0.1061
  1/2[<0|del|b>*<b|r|0> + (<0|r|b>*<b|del|0>)*] (Au)
       state          X           Y           Z        Dip. S.   Osc.(frdel)
         1        -0.0001     -0.0004     -0.0000      0.0005      0.0003

 Excitation energies and oscillator strengths:
 
 Excited State   1:      Singlet-A      5.5153 eV  224.80 nm  f=0.0003  <S**2>=0.000
      20 -> 22         0.48717
      21 -> 23         0.51039
 This state for optimization and/or second-order correction.
 Total Energy, E(TD-HF/TD-DFT) =  -232.030644957    
 Copying the excited state density for this state as the 1-particle RhoCI density.
 SavETr:  write IOETrn=   770 NScale= 10 NData=  16 NLR=1 NState=    1 LETran=      28.

 **********************************************************************

            Population analysis using the SCF Density.

 **********************************************************************

 Orbital symmetries:
       Occupied  (A) (A) (A) (A) (A) (A) (A) (A) (A) (A) (A) (A)
                 (A) (A) (A) (A) (A) (A) (A) (A) (A)
       Virtual   (A) (A) (A) (A) (A) (A) (A) (A) (A) (A) (A) (A)
                 (A) (A) (A) (A) (A) (A) (A) (A) (A) (A) (A) (A)
                 (A) (A) (A) (A) (A) (A) (A) (A) (A) (A) (A) (A)
                 (A) (A) (A) (A) (A) (A) (A) (A) (A) (A) (A) (A)
                 (A) (A) (A) (A) (A) (A) (A) (A) (A) (A) (A) (A)
                 (A) (A) (A) (A) (A) (A) (A) (A) (A) (A) (A) (A)
                 (A) (A) (A) (A) (A) (A) (A) (A) (A) (A) (A) (A)
                 (A) (A) (A) (A) (A) (A) (A) (A) (A) (A) (A) (A)
                 (A) (A) (A)
 The electronic state is 1-A.
 Alpha  occ. eigenvalues --  -10.19172 -10.18992 -10.18493 -10.18437 -10.18345
 Alpha  occ. eigenvalues --  -10.18083  -0.84750  -0.75055  -0.73436  -0.60500
 Alpha  occ. eigenvalues --   -0.59521  -0.52078  -0.46314  -0.44205  -0.42173
 Alpha  occ. eigenvalues --   -0.40835  -0.36112  -0.34376  -0.32918  -0.25479
 Alpha  occ. eigenvalues --   -0.23961
 Alpha virt. eigenvalues --   -0.00480   0.00783   0.09472   0.14032   0.15141
 Alpha virt. eigenvalues --    0.16149   0.17442   0.18624   0.19812   0.28484
 Alpha virt. eigenvalues --    0.30567   0.30790   0.33116   0.46272   0.51600
 Alpha virt. eigenvalues --    0.52635   0.55286   0.55966   0.58259   0.59737
 Alpha virt. eigenvalues --    0.60300   0.60879   0.61974   0.62668   0.65333
 Alpha virt. eigenvalues --    0.66673   0.66946   0.74380   0.80374   0.81901
 Alpha virt. eigenvalues --    0.83163   0.85587   0.86868   0.92270   0.93727
 Alpha virt. eigenvalues --    0.94406   0.96053   1.06618   1.08325   1.10904
 Alpha virt. eigenvalues --    1.13190   1.17585   1.23454   1.27425   1.39508
 Alpha virt. eigenvalues --    1.39761   1.41694   1.42710   1.44239   1.51110
 Alpha virt. eigenvalues --    1.71759   1.77130   1.80955   1.83494   1.91747
 Alpha virt. eigenvalues --    1.91885   1.95725   1.97021   1.98993   1.99667
 Alpha virt. eigenvalues --    2.03493   2.06827   2.10798   2.25545   2.29860
 Alpha virt. eigenvalues --    2.31446   2.35696   2.40198   2.40701   2.42145
 Alpha virt. eigenvalues --    2.44203   2.46131   2.47340   2.50181   2.52444
 Alpha virt. eigenvalues --    2.53667   2.55149   2.60663   2.61822   2.69018
 Alpha virt. eigenvalues --    2.78301   2.80401   2.83562   3.01525   3.06040
 Alpha virt. eigenvalues --    3.15213   3.25117   3.26978   3.33223   3.45421
 Alpha virt. eigenvalues --    3.56515   3.57649   3.96126   4.12890   4.15910
 Alpha virt. eigenvalues --    4.17996   4.44499   4.45141   4.83468
          Condensed to atoms (all electrons):
               1          2          3          4          5          6
     1  C    4.856925   0.506652  -0.026451  -0.045575  -0.032878   0.554624
     2  C    0.506652   4.790083   0.563949  -0.029416  -0.040529  -0.026729
     3  C   -0.026451   0.563949   4.826024   0.512760  -0.029715  -0.047302
     4  C   -0.045575  -0.029416   0.512760   4.805068   0.566657  -0.038016
     5  C   -0.032878  -0.040529  -0.029715   0.566657   4.807693   0.534966
     6  C    0.554624  -0.026729  -0.047302  -0.038016   0.534966   4.808877
     7  H    0.369300  -0.042143   0.005214   0.000561   0.005885  -0.043499
     8  H   -0.045194   0.004888   0.000511   0.006144  -0.043684   0.368132
     9  H    0.004781   0.000498   0.004699  -0.039604   0.362645  -0.043406
    10  H    0.000722   0.004304  -0.038616   0.373912  -0.051026   0.007265
    11  H    0.004772  -0.043932   0.366992  -0.043943   0.004792   0.000565
    12  H   -0.046431   0.381543  -0.046694   0.004882   0.000413   0.005014
               7          8          9         10         11         12
     1  C    0.369300  -0.045194   0.004781   0.000722   0.004772  -0.046431
     2  C   -0.042143   0.004888   0.000498   0.004304  -0.043932   0.381543
     3  C    0.005214   0.000511   0.004699  -0.038616   0.366992  -0.046694
     4  C    0.000561   0.006144  -0.039604   0.373912  -0.043943   0.004882
     5  C    0.005885  -0.043684   0.362645  -0.051026   0.004792   0.000413
     6  C   -0.043499   0.368132  -0.043406   0.007265   0.000565   0.005014
     7  H    0.634244  -0.007427  -0.000212   0.000013  -0.000176  -0.005407
     8  H   -0.007427   0.642642  -0.006596  -0.000356   0.000016  -0.000195
     9  H   -0.000212  -0.006596   0.643989  -0.009349  -0.000173   0.000018
    10  H    0.000013  -0.000356  -0.009349   0.635188  -0.005132  -0.000145
    11  H   -0.000176   0.000016  -0.000173  -0.005132   0.638822  -0.006755
    12  H   -0.005407  -0.000195   0.000018  -0.000145  -0.006755   0.627682
 Mulliken charges:
               1
     1  C   -0.101246
     2  C   -0.069166
     3  C   -0.091370
     4  C   -0.073430
     5  C   -0.085220
     6  C   -0.080493
     7  H    0.083647
     8  H    0.081118
     9  H    0.082711
    10  H    0.083221
    11  H    0.084152
    12  H    0.086076
 Sum of Mulliken charges =  -0.00000
 Mulliken charges with hydrogens summed into heavy atoms:
               1
     1  C   -0.017599
     2  C    0.016910
     3  C   -0.007218
     4  C    0.009791
     5  C   -0.002509
     6  C    0.000625
 Electronic spatial extent (au):  <R**2>=            456.9139
 Charge=             -0.0000 electrons
 Dipole moment (field-independent basis, Debye):
    X=             -0.0255    Y=              0.0722    Z=              0.0695  Tot=              0.1034
 Quadrupole moment (field-independent basis, Debye-Ang):
   XX=            -31.2133   YY=            -31.8068   ZZ=            -38.4143
   XY=              0.3285   XZ=             -0.0321   YZ=             -0.0230
 Traceless Quadrupole moment (field-independent basis, Debye-Ang):
   XX=              2.5982   YY=              2.0047   ZZ=             -4.6028
   XY=              0.3285   XZ=             -0.0321   YZ=             -0.0230
 Octapole moment (field-independent basis, Debye-Ang**2):
  XXX=              0.1125  YYY=              1.3497  ZZZ=              0.0808  XYY=             -0.2134
  XXY=             -0.1111  XXZ=              0.0035  XZZ=              0.0795  YZZ=             -0.0796
  YYZ=              0.6193  XYZ=             -0.3376
 Hexadecapole moment (field-independent basis, Debye-Ang**3):
 XXXX=           -276.2638 YYYY=           -265.0233 ZZZZ=            -39.9820 XXXY=              2.4892
 XXXZ=             -0.2915 YYYX=              0.6583 YYYZ=             -0.0875 ZZZX=             -0.0576
 ZZZY=             -0.0177 XXYY=            -89.7570 XXZZ=            -61.3344 YYZZ=            -58.6883
 XXYZ=             -0.1265 YYXZ=              0.0126 ZZXY=              0.2301
 N-N= 2.036284525005D+02 E-N=-9.447100495720D+02  KE= 2.301076672218D+02
 1\1\GINC-DESKTOP-PRN5QE3\SP\RB3LYP TD-FC\6-31G(d,p)\C6H6\SHOHEI\10-Nov
 -2023\0\\# TD=(NStates=1) B3LYP/6-31G(d,p)\\ABSSPCT\\0,1\C,0,-0.261980
 9361,1.3710975008,0.0466214219\C,0,1.1162606181,0.902682083,-0.0179065
 016\C,0,1.3188590776,-0.4207018698,-0.0200726179\C,0,0.2323765037,-1.3
 559864285,0.0185718666\C,0,-1.0523640826,-0.9253699938,0.006259111\C,0
 ,-1.3232671813,0.4339659573,-0.0459914952\H,0,-0.5078102261,2.39852429
 87,0.0349351533\H,0,-2.3132498944,0.8315762858,0.0548362867\H,0,-1.944
 867324,-1.6115817205,-0.0183564454\H,0,0.2160892815,-2.3937787475,0.03
 18556036\H,0,2.3284381091,-0.8834143245,0.0723031475\H,0,1.8671870981,
 1.599387811,-0.0465326676\\Version=EM64L-G16RevB.01\State=1-A\HF=-232.
 2333269\RMSD=3.725e-09\PG=C01 [X(C6H6)]\\@


 Other things may change us, but we start and end with family.
 -- Anthony Brandt
 Job cpu time:       0 days  0 hours  3 minutes 22.3 seconds.
 Elapsed time:       0 days  0 hours  0 minutes 51.3 seconds.
 File lengths (MBytes):  RWF=    116 Int=      0 D2E=      0 Chk=      3 Scr=      1
 Normal termination of Gaussian 16 at Fri Nov 10 16:34:14 2023.
