 Entering Gaussian System, Link 0=g16
 Input=Geometry-454-.com
 Output=Geometry-454-.log
 Initial command:
 /home/shohei/gaussian/g16/l1.exe "/home/shohei/gaussian/scratch/Gau-8841.inp" -scrdir="/home/shohei/gaussian/scratch/"
 Entering Link 1 = /home/shohei/gaussian/g16/l1.exe PID=      8843.
  
 Copyright (c) 1988-2017, Gaussian, Inc.  All Rights Reserved.
  
 This is part of the Gaussian(R) 16 program.  It is based on
 the Gaussian(R) 09 system (copyright 2009, Gaussian, Inc.),
 the Gaussian(R) 03 system (copyright 2003, Gaussian, Inc.),
 the Gaussian(R) 98 system (copyright 1998, Gaussian, Inc.),
 the Gaussian(R) 94 system (copyright 1995, Gaussian, Inc.),
 the Gaussian 92(TM) system (copyright 1992, Gaussian, Inc.),
 the Gaussian 90(TM) system (copyright 1990, Gaussian, Inc.),
 the Gaussian 88(TM) system (copyright 1988, Gaussian, Inc.),
 the Gaussian 86(TM) system (copyright 1986, Carnegie Mellon
 University), and the Gaussian 82(TM) system (copyright 1983,
 Carnegie Mellon University). Gaussian is a federally registered
 trademark of Gaussian, Inc.
  
 This software contains proprietary and confidential information,
 including trade secrets, belonging to Gaussian, Inc.
  
 This software is provided under written license and may be
 used, copied, transmitted, or stored only in accord with that
 written license.
  
 The following legend is applicable only to US Government
 contracts under FAR:
  
                    RESTRICTED RIGHTS LEGEND
  
 Use, reproduction and disclosure by the US Government is
 subject to restrictions as set forth in subparagraphs (a)
 and (c) of the Commercial Computer Software - Restricted
 Rights clause in FAR 52.227-19.
  
 Gaussian, Inc.
 340 Quinnipiac St., Bldg. 40, Wallingford CT 06492
  
  
 ---------------------------------------------------------------
 Warning -- This program may not be used in any manner that
 competes with the business of Gaussian, Inc. or will provide
 assistance to any competitor of Gaussian, Inc.  The licensee
 of this program is prohibited from giving any competitor of
 Gaussian, Inc. access to this program.  By using this program,
 the user acknowledges that Gaussian, Inc. is engaged in the
 business of creating and licensing software in the field of
 computational chemistry and represents and warrants to the
 licensee that it is not a competitor of Gaussian, Inc. and that
 it will not use this program in any manner prohibited above.
 ---------------------------------------------------------------
  

 Cite this work as:
 Gaussian 16, Revision B.01,
 M. J. Frisch, G. W. Trucks, H. B. Schlegel, G. E. Scuseria, 
 M. A. Robb, J. R. Cheeseman, G. Scalmani, V. Barone, 
 G. A. Petersson, H. Nakatsuji, X. Li, M. Caricato, A. V. Marenich, 
 J. Bloino, B. G. Janesko, R. Gomperts, B. Mennucci, H. P. Hratchian, 
 J. V. Ortiz, A. F. Izmaylov, J. L. Sonnenberg, D. Williams-Young, 
 F. Ding, F. Lipparini, F. Egidi, J. Goings, B. Peng, A. Petrone, 
 T. Henderson, D. Ranasinghe, V. G. Zakrzewski, J. Gao, N. Rega, 
 G. Zheng, W. Liang, M. Hada, M. Ehara, K. Toyota, R. Fukuda, 
 J. Hasegawa, M. Ishida, T. Nakajima, Y. Honda, O. Kitao, H. Nakai, 
 T. Vreven, K. Throssell, J. A. Montgomery, Jr., J. E. Peralta, 
 F. Ogliaro, M. J. Bearpark, J. J. Heyd, E. N. Brothers, K. N. Kudin, 
 V. N. Staroverov, T. A. Keith, R. Kobayashi, J. Normand, 
 K. Raghavachari, A. P. Rendell, J. C. Burant, S. S. Iyengar, 
 J. Tomasi, M. Cossi, J. M. Millam, M. Klene, C. Adamo, R. Cammi, 
 J. W. Ochterski, R. L. Martin, K. Morokuma, O. Farkas, 
 J. B. Foresman, and D. J. Fox, Gaussian, Inc., Wallingford CT, 2016.
 
 ******************************************
 Gaussian 16:  EM64L-G16RevB.01 20-Dec-2017
                10-Nov-2023 
 ******************************************
 %nproc=4
 Will use up to    4 processors via shared memory.
 %Mem=2Gb
 ---------------------------------
 # TD=(NStates=1) B3LYP/6-31G(d,p)
 ---------------------------------
 1/38=1,172=1/1;
 2/12=2,17=6,18=5,40=1/2;
 3/5=1,6=6,7=101,11=9,25=1,30=1,74=-5/1,2,3,8;
 4//1;
 5/5=2,38=5/2;
 8/6=1,10=2,108=1/1;
 9/41=1,42=1,70=2/14;
 6/7=2,8=2,9=2,10=2/1;
 99/5=1,9=1/99;
 -------
 ABSSPCT
 -------
 Symbolic Z-matrix:
 Charge =  0 Multiplicity = 1
 6                    -0.2542    1.40805  -0.03406 
 6                     1.04208   0.89457  -0.01221 
 6                     1.31961  -0.46503   0.05073 
 6                     0.26566  -1.39773   0.01845 
 6                    -1.08354  -0.89648  -0.05768 
 6                    -1.30864   0.4553    0.04883 
 1                    -0.35987   2.56416   0.08573 
 1                    -2.32989   0.76899   0.13193 
 1                    -1.7594   -1.74494  -0.02274 
 1                     0.37611  -2.41174  -0.13372 
 1                     2.45173  -0.80635  -0.00513 
 1                     1.87311   1.59814  -0.19045 
 
                          Input orientation:                          
 ---------------------------------------------------------------------
 Center     Atomic      Atomic             Coordinates (Angstroms)
 Number     Number       Type             X           Y           Z
 ---------------------------------------------------------------------
      1          6           0       -0.254200    1.408053   -0.034059
      2          6           0        1.042083    0.894573   -0.012213
      3          6           0        1.319614   -0.465034    0.050732
      4          6           0        0.265656   -1.397729    0.018450
      5          6           0       -1.083535   -0.896483   -0.057679
      6          6           0       -1.308635    0.455303    0.048831
      7          1           0       -0.359872    2.564159    0.085733
      8          1           0       -2.329888    0.768992    0.131932
      9          1           0       -1.759397   -1.744945   -0.022736
     10          1           0        0.376114   -2.411738   -0.133718
     11          1           0        2.451730   -0.806350   -0.005134
     12          1           0        1.873115    1.598141   -0.190447
 ---------------------------------------------------------------------
                    Distance matrix (angstroms):
                    1          2          3          4          5
     1  C    0.000000
     2  C    1.394449   0.000000
     3  C    2.447965   1.389070   0.000000
     4  C    2.854018   2.420419   1.407760   0.000000
     5  C    2.449334   2.779964   2.443977   1.441305   0.000000
     6  C    1.423530   2.392187   2.784729   2.431675   1.374532
     7  H    1.167089   2.182335   3.463799   4.011529   3.538403
     8  H    2.178172   3.377386   3.853346   3.382959   2.088817
     9  H    3.493871   3.849084   3.335247   2.055017   1.085310
    10  H    3.872729   3.374903   2.171145   1.031296   2.105316
    11  H    3.496638   2.209139   1.183768   2.264775   3.536805
    12  H    2.141509   1.103353   2.149702   3.406288   3.870730
                    6          7          8          9         10
     6  C    0.000000
     7  H    2.312745   0.000000
     8  H    1.071571   2.665656   0.000000
     9  H    2.247086   4.531976   2.582491   0.000000
    10  H    3.330409   5.034817   4.184503   2.239941   0.000000
    11  H    3.966740   4.390181   5.036305   4.314494   2.627164
    12  H    3.389228   2.448611   4.296120   4.939583   4.280579
                   11         12
    11  H    0.000000
    12  H    2.480063   0.000000
 Stoichiometry    C6H6
 Framework group  C1[X(C6H6)]
 Deg. of freedom    30
 Full point group                 C1      NOp   1
 Largest Abelian subgroup         C1      NOp   1
 Largest concise Abelian subgroup C1      NOp   1
                         Standard orientation:                         
 ---------------------------------------------------------------------
 Center     Atomic      Atomic             Coordinates (Angstroms)
 Number     Number       Type             X           Y           Z
 ---------------------------------------------------------------------
      1          6           0        1.353259   -0.468846    0.039006
      2          6           0        1.043266    0.890350    0.007694
      3          6           0       -0.258056    1.371298   -0.061347
      4          6           0       -1.340474    0.471913   -0.025768
      5          6           0       -1.050756   -0.937360    0.060103
      6          6           0        0.251212   -1.366390   -0.040647
      7          1           0        2.480053   -0.750127   -0.076382
      8          1           0        0.405879   -2.424017   -0.116584
      9          1           0       -1.992179   -1.476329    0.026460
     10          1           0       -2.326175    0.736491    0.122430
     11          1           0       -0.423078    2.542526   -0.013399
     12          1           0        1.864791    1.605665    0.183220
 ---------------------------------------------------------------------
 Rotational constants (GHZ):           5.6883255           5.5446249           2.8140068
 Standard basis: 6-31G(d,p) (6D, 7F)
 There are   120 symmetry adapted cartesian basis functions of A   symmetry.
 There are   120 symmetry adapted basis functions of A   symmetry.
   120 basis functions,   210 primitive gaussians,   120 cartesian basis functions
    21 alpha electrons       21 beta electrons
       nuclear repulsion energy       201.8643225128 Hartrees.
 NAtoms=   12 NActive=   12 NUniq=   12 SFac= 1.00D+00 NAtFMM=   60 NAOKFM=F Big=F
 Integral buffers will be    131072 words long.
 Regular integral format.
 Two-electron integral symmetry is turned on.
 One-electron integrals computed using PRISM.
 NBasis=   120 RedAO= T EigKep=  7.70D-04  NBF=   120
 NBsUse=   120 1.00D-06 EigRej= -1.00D+00 NBFU=   120
 ExpMin= 1.61D-01 ExpMax= 3.05D+03 ExpMxC= 4.57D+02 IAcc=3 IRadAn=         5 AccDes= 0.00D+00
 Harris functional with IExCor=  402 and IRadAn=       5 diagonalized for initial guess.
 HarFok:  IExCor=  402 AccDes= 0.00D+00 IRadAn=         5 IDoV= 1 UseB2=F ITyADJ=14
 ICtDFT=  3500011 ScaDFX=  1.000000  1.000000  1.000000  1.000000
 FoFCou: FMM=F IPFlag=           0 FMFlag=      100000 FMFlg1=           0
         NFxFlg=           0 DoJE=T BraDBF=F KetDBF=T FulRan=T
         wScrn=  0.000000 ICntrl=       500 IOpCl=  0 I1Cent=   200000004 NGrid=           0
         NMat0=    1 NMatS0=      1 NMatT0=    0 NMatD0=    1 NMtDS0=    0 NMtDT0=    0
 Petite list used in FoFCou.
 Keep R1 ints in memory in canonical form, NReq=30147728.
 Requested convergence on RMS density matrix=1.00D-08 within 128 cycles.
 Requested convergence on MAX density matrix=1.00D-06.
 Requested convergence on             energy=1.00D-06.
 No special actions if energy rises.
 Integral accuracy reduced to 1.0D-05 until final iterations.
 Initial convergence to 1.0D-05 achieved.  Increase integral accuracy.
 SCF Done:  E(RB3LYP) =  -232.231009068     A.U. after   13 cycles
            NFock= 13  Conv=0.24D-08     -V/T= 2.0110
 DoSCS=F DFT=T ScalE2(SS,OS)=  1.000000  1.000000
 ExpMin= 1.61D-01 ExpMax= 3.05D+03 ExpMxC= 4.57D+02 IAcc=3 IRadAn=         5 AccDes= 0.00D+00
 HarFok:  IExCor=  205 AccDes= 0.00D+00 IRadAn=         5 IDoV=-2 UseB2=F ITyADJ=14
 ICtDFT= 12500011 ScaDFX=  1.000000  1.000000  1.000000  1.000000
 Range of M.O.s used for correlation:     7   120
 NBasis=   120 NAE=    21 NBE=    21 NFC=     6 NFV=     0
 NROrb=    114 NOA=    15 NOB=    15 NVA=    99 NVB=    99
 Keep R1, R2, and R3 ints in memory in canonical form, NReq=84032236.
 Orbital symmetries:
       Occupied  (A) (A) (A) (A) (A) (A) (A) (A) (A) (A) (A) (A)
                 (A) (A) (A) (A) (A) (A) (A) (A) (A)
       Virtual   (A) (A) (A) (A) (A) (A) (A) (A) (A) (A) (A) (A)
                 (A) (A) (A) (A) (A) (A) (A) (A) (A) (A) (A) (A)
                 (A) (A) (A) (A) (A) (A) (A) (A) (A) (A) (A) (A)
                 (A) (A) (A) (A) (A) (A) (A) (A) (A) (A) (A) (A)
                 (A) (A) (A) (A) (A) (A) (A) (A) (A) (A) (A) (A)
                 (A) (A) (A) (A) (A) (A) (A) (A) (A) (A) (A) (A)
                 (A) (A) (A) (A) (A) (A) (A) (A) (A) (A) (A) (A)
                 (A) (A) (A) (A) (A) (A) (A) (A) (A) (A) (A) (A)
                 (A) (A) (A)
     4 initial guesses have been made.
 Convergence on wavefunction:    0.001000000000000
 Iteration     1 Dimension     4 NMult     0 NNew      4
 CISAX will form     4 AO SS matrices at one time.
 New state      1 was old state      2
 Iteration     2 Dimension     6 NMult     4 NNew      2
 Iteration     3 Dimension     8 NMult     6 NNew      2
 Iteration     4 Dimension    10 NMult     8 NNew      2
 Iteration     5 Dimension    12 NMult    10 NNew      2
 ***********************************************************************
 Excited states from <AA,BB:AA,BB> singles matrix:
 ***********************************************************************
 
 Ground to excited state transition densities written to RWF  633
 Ground to excited state transition electric dipole moments (Au):
       state          X           Y           Z        Dip. S.      Osc.
         1        -0.0047     -0.0700      0.0036      0.0049      0.0007
 Ground to excited state transition velocity dipole moments (Au):
       state          X           Y           Z        Dip. S.      Osc.
         1        -0.0002      0.0142     -0.0004      0.0002      0.0007
 Ground to excited state transition magnetic dipole moments (Au):
       state          X           Y           Z
         1        -0.0021      0.0163     -0.0356
 Ground to excited state transition velocity quadrupole moments (Au):
       state          XX          YY          ZZ          XY          XZ          YZ
         1        -0.0063     -0.0028      0.0046      0.0068     -0.0187      0.0040
 <0|del|b> * <b|rxdel|0> + <0|del|b> * <b|delr+rdel|0>
 Rotatory Strengths (R) in cgs (10**-40 erg-esu-cm/Gauss)
       state          XX          YY          ZZ    R(velocity)    E-M Angle
         1         0.9060      0.0293     -0.0580      0.2924       63.73
 1/2[<0|r|b>*<b|rxdel|0> + (<0|rxdel|b>*<b|r|0>)*]
 Rotatory Strengths (R) in cgs (10**-40 erg-esu-cm/Gauss)
       state          XX          YY          ZZ     R(length)
         1        -0.0071      0.8084      0.0900      0.2971
  1/2[<0|del|b>*<b|r|0> + (<0|r|b>*<b|del|0>)*] (Au)
       state          X           Y           Z        Dip. S.   Osc.(frdel)
         1         0.0000     -0.0010     -0.0000      0.0010      0.0007

 Excitation energies and oscillator strengths:
 
 Excited State   1:      Singlet-A      5.3921 eV  229.94 nm  f=0.0007  <S**2>=0.000
      20 -> 22         0.51527
      21 -> 23        -0.47416
 This state for optimization and/or second-order correction.
 Total Energy, E(TD-HF/TD-DFT) =  -232.032853718    
 Copying the excited state density for this state as the 1-particle RhoCI density.
 SavETr:  write IOETrn=   770 NScale= 10 NData=  16 NLR=1 NState=    1 LETran=      28.

 **********************************************************************

            Population analysis using the SCF Density.

 **********************************************************************

 Orbital symmetries:
       Occupied  (A) (A) (A) (A) (A) (A) (A) (A) (A) (A) (A) (A)
                 (A) (A) (A) (A) (A) (A) (A) (A) (A)
       Virtual   (A) (A) (A) (A) (A) (A) (A) (A) (A) (A) (A) (A)
                 (A) (A) (A) (A) (A) (A) (A) (A) (A) (A) (A) (A)
                 (A) (A) (A) (A) (A) (A) (A) (A) (A) (A) (A) (A)
                 (A) (A) (A) (A) (A) (A) (A) (A) (A) (A) (A) (A)
                 (A) (A) (A) (A) (A) (A) (A) (A) (A) (A) (A) (A)
                 (A) (A) (A) (A) (A) (A) (A) (A) (A) (A) (A) (A)
                 (A) (A) (A) (A) (A) (A) (A) (A) (A) (A) (A) (A)
                 (A) (A) (A) (A) (A) (A) (A) (A) (A) (A) (A) (A)
                 (A) (A) (A)
 The electronic state is 1-A.
 Alpha  occ. eigenvalues --  -10.20061 -10.19833 -10.19174 -10.18972 -10.18893
 Alpha  occ. eigenvalues --  -10.18737  -0.84450  -0.74131  -0.73607  -0.60178
 Alpha  occ. eigenvalues --   -0.59034  -0.51299  -0.45514  -0.44289  -0.41288
 Alpha  occ. eigenvalues --   -0.40652  -0.35851  -0.34941  -0.32277  -0.24938
 Alpha  occ. eigenvalues --   -0.24372
 Alpha virt. eigenvalues --   -0.00789   0.00349   0.07956   0.12908   0.13835
 Alpha virt. eigenvalues --    0.15116   0.16980   0.17932   0.19608   0.28081
 Alpha virt. eigenvalues --    0.29963   0.30601   0.32929   0.46571   0.50993
 Alpha virt. eigenvalues --    0.53034   0.54123   0.55410   0.59029   0.59449
 Alpha virt. eigenvalues --    0.59758   0.60463   0.61264   0.62588   0.63508
 Alpha virt. eigenvalues --    0.66221   0.66746   0.73906   0.78140   0.79087
 Alpha virt. eigenvalues --    0.81498   0.83004   0.85856   0.92017   0.92493
 Alpha virt. eigenvalues --    0.93966   0.94473   1.05749   1.07763   1.09147
 Alpha virt. eigenvalues --    1.11845   1.13495   1.25293   1.28049   1.31465
 Alpha virt. eigenvalues --    1.39379   1.41635   1.42633   1.43926   1.55029
 Alpha virt. eigenvalues --    1.69308   1.74968   1.78519   1.80815   1.86681
 Alpha virt. eigenvalues --    1.88550   1.96098   1.97317   1.98796   2.00081
 Alpha virt. eigenvalues --    2.03247   2.04448   2.08515   2.24732   2.26802
 Alpha virt. eigenvalues --    2.28563   2.33738   2.35563   2.36003   2.38814
 Alpha virt. eigenvalues --    2.41766   2.43321   2.44340   2.46867   2.50311
 Alpha virt. eigenvalues --    2.52617   2.55044   2.57576   2.60430   2.65877
 Alpha virt. eigenvalues --    2.72674   2.74600   2.81186   2.95325   3.00652
 Alpha virt. eigenvalues --    3.10776   3.16962   3.18520   3.24681   3.35026
 Alpha virt. eigenvalues --    3.49806   3.54455   3.88064   4.12621   4.16221
 Alpha virt. eigenvalues --    4.17188   4.43338   4.44516   4.79427
          Condensed to atoms (all electrons):
               1          2          3          4          5          6
     1  C    4.846043   0.541816  -0.042081  -0.037601  -0.034222   0.527956
     2  C    0.541816   4.805938   0.550298  -0.036471  -0.037179  -0.037371
     3  C   -0.042081   0.550298   4.809001   0.550523  -0.039054  -0.039722
     4  C   -0.037601  -0.036471   0.550523   4.837143   0.521606  -0.034189
     5  C   -0.034222  -0.037179  -0.039054   0.521606   4.819020   0.559169
     6  C    0.527956  -0.037371  -0.039722  -0.034189   0.559169   4.813518
     7  H    0.361228  -0.037799   0.004235   0.000346   0.002925  -0.033314
     8  H   -0.042851   0.004851   0.000812   0.005328  -0.046910   0.368491
     9  H    0.003790   0.000449   0.005727  -0.048795   0.370621  -0.037943
    10  H    0.000758   0.004420  -0.040033   0.370874  -0.044052   0.005799
    11  H    0.004451  -0.038581   0.356005  -0.038875   0.004165   0.000293
    12  H   -0.042550   0.364956  -0.040571   0.004725   0.000659   0.004971
               7          8          9         10         11         12
     1  C    0.361228  -0.042851   0.003790   0.000758   0.004451  -0.042550
     2  C   -0.037799   0.004851   0.000449   0.004420  -0.038581   0.364956
     3  C    0.004235   0.000812   0.005727  -0.040033   0.356005  -0.040571
     4  C    0.000346   0.005328  -0.048795   0.370874  -0.038875   0.004725
     5  C    0.002925  -0.046910   0.370621  -0.044052   0.004165   0.000659
     6  C   -0.033314   0.368491  -0.037943   0.005799   0.000293   0.004971
     7  H    0.621205  -0.004288  -0.000084   0.000012  -0.000145  -0.006358
     8  H   -0.004288   0.636421  -0.005951  -0.000267   0.000014  -0.000212
     9  H   -0.000084  -0.005951   0.631419  -0.008307  -0.000198   0.000014
    10  H    0.000012  -0.000267  -0.008307   0.628190  -0.004592  -0.000185
    11  H   -0.000145   0.000014  -0.000198  -0.004592   0.646144  -0.007310
    12  H   -0.006358  -0.000212   0.000014  -0.000185  -0.007310   0.637505
 Mulliken charges:
               1
     1  C   -0.086737
     2  C   -0.085327
     3  C   -0.075139
     4  C   -0.094614
     5  C   -0.076750
     6  C   -0.097657
     7  H    0.092037
     8  H    0.084563
     9  H    0.089258
    10  H    0.087383
    11  H    0.078630
    12  H    0.084355
 Sum of Mulliken charges =  -0.00000
 Mulliken charges with hydrogens summed into heavy atoms:
               1
     1  C    0.005300
     2  C   -0.000972
     3  C    0.003490
     4  C   -0.007231
     5  C    0.012507
     6  C   -0.013095
 Electronic spatial extent (au):  <R**2>=            463.5126
 Charge=             -0.0000 electrons
 Dipole moment (field-independent basis, Debye):
    X=             -0.0886    Y=              0.0044    Z=              0.0656  Tot=              0.1104
 Quadrupole moment (field-independent basis, Debye-Ang):
   XX=            -30.9087   YY=            -32.4053   ZZ=            -38.6820
   XY=              0.2004   XZ=             -0.2184   YZ=              0.5460
 Traceless Quadrupole moment (field-independent basis, Debye-Ang):
   XX=              3.0900   YY=              1.5934   ZZ=             -4.6833
   XY=              0.2004   XZ=             -0.2184   YZ=              0.5460
 Octapole moment (field-independent basis, Debye-Ang**2):
  XXX=             -1.0922  YYY=              0.7154  ZZZ=              0.1155  XYY=              0.0447
  XXY=             -0.7324  XXZ=              0.6117  XZZ=             -0.2184  YZZ=             -0.1252
  YYZ=             -0.0006  XYZ=              0.4375
 Hexadecapole moment (field-independent basis, Debye-Ang**3):
 XXXX=           -269.7171 YYYY=           -275.4891 ZZZZ=            -40.9054 XXXY=              1.2123
 XXXZ=             -2.0591 YYYX=              0.1371 YYYZ=              2.5240 ZZZX=             -0.2454
 ZZZY=              0.5981 XXYY=            -94.7701 XXZZ=            -61.9212 YYZZ=            -61.0312
 XXYZ=              1.8604 YYXZ=              0.1978 ZZXY=              0.2116
 N-N= 2.018643225128D+02 E-N=-9.408469902771D+02  KE= 2.297055402968D+02
 1\1\GINC-DESKTOP-PRN5QE3\SP\RB3LYP TD-FC\6-31G(d,p)\C6H6\SHOHEI\10-Nov
 -2023\0\\# TD=(NStates=1) B3LYP/6-31G(d,p)\\ABSSPCT\\0,1\C,0,-0.254200
 1772,1.4080528934,-0.0340593582\C,0,1.04208287,0.8945729683,-0.0122127
 978\C,0,1.3196135012,-0.4650340156,0.0507321742\C,0,0.265656058,-1.397
 7288884,0.0184503782\C,0,-1.0835350452,-0.8964826508,-0.0576786681\C,0
 ,-1.3086351298,0.4553026691,0.0488305552\H,0,-0.359871855,2.5641589479
 ,0.0857326314\H,0,-2.3298883869,0.7689924717,0.1319315556\H,0,-1.75939
 6676,-1.7449445605,-0.022735505\H,0,0.376113577,-2.4117381078,-0.13371
 84422\H,0,2.4517304837,-0.8063497325,-0.0051342247\H,0,1.8731147395,1.
 5981405924,-0.1904465681\\Version=EM64L-G16RevB.01\State=1-A\HF=-232.2
 310091\RMSD=2.390e-09\PG=C01 [X(C6H6)]\\@


 ART, GLORY, FREEDOM FAIL, BUT NATURE STILL IS FAIR.

                                           -- BYRON
 Job cpu time:       0 days  0 hours  3 minutes 13.0 seconds.
 Elapsed time:       0 days  0 hours  0 minutes 48.7 seconds.
 File lengths (MBytes):  RWF=    116 Int=      0 D2E=      0 Chk=      3 Scr=      1
 Normal termination of Gaussian 16 at Fri Nov 10 18:57:22 2023.
