 Entering Gaussian System, Link 0=g16
 Input=Geometry-62-.com
 Output=Geometry-62-.log
 Initial command:
 /home/shohei/gaussian/g16/l1.exe "/home/shohei/gaussian/scratch/Gau-29160.inp" -scrdir="/home/shohei/gaussian/scratch/"
 Entering Link 1 = /home/shohei/gaussian/g16/l1.exe PID=     29162.
  
 Copyright (c) 1988-2017, Gaussian, Inc.  All Rights Reserved.
  
 This is part of the Gaussian(R) 16 program.  It is based on
 the Gaussian(R) 09 system (copyright 2009, Gaussian, Inc.),
 the Gaussian(R) 03 system (copyright 2003, Gaussian, Inc.),
 the Gaussian(R) 98 system (copyright 1998, Gaussian, Inc.),
 the Gaussian(R) 94 system (copyright 1995, Gaussian, Inc.),
 the Gaussian 92(TM) system (copyright 1992, Gaussian, Inc.),
 the Gaussian 90(TM) system (copyright 1990, Gaussian, Inc.),
 the Gaussian 88(TM) system (copyright 1988, Gaussian, Inc.),
 the Gaussian 86(TM) system (copyright 1986, Carnegie Mellon
 University), and the Gaussian 82(TM) system (copyright 1983,
 Carnegie Mellon University). Gaussian is a federally registered
 trademark of Gaussian, Inc.
  
 This software contains proprietary and confidential information,
 including trade secrets, belonging to Gaussian, Inc.
  
 This software is provided under written license and may be
 used, copied, transmitted, or stored only in accord with that
 written license.
  
 The following legend is applicable only to US Government
 contracts under FAR:
  
                    RESTRICTED RIGHTS LEGEND
  
 Use, reproduction and disclosure by the US Government is
 subject to restrictions as set forth in subparagraphs (a)
 and (c) of the Commercial Computer Software - Restricted
 Rights clause in FAR 52.227-19.
  
 Gaussian, Inc.
 340 Quinnipiac St., Bldg. 40, Wallingford CT 06492
  
  
 ---------------------------------------------------------------
 Warning -- This program may not be used in any manner that
 competes with the business of Gaussian, Inc. or will provide
 assistance to any competitor of Gaussian, Inc.  The licensee
 of this program is prohibited from giving any competitor of
 Gaussian, Inc. access to this program.  By using this program,
 the user acknowledges that Gaussian, Inc. is engaged in the
 business of creating and licensing software in the field of
 computational chemistry and represents and warrants to the
 licensee that it is not a competitor of Gaussian, Inc. and that
 it will not use this program in any manner prohibited above.
 ---------------------------------------------------------------
  

 Cite this work as:
 Gaussian 16, Revision B.01,
 M. J. Frisch, G. W. Trucks, H. B. Schlegel, G. E. Scuseria, 
 M. A. Robb, J. R. Cheeseman, G. Scalmani, V. Barone, 
 G. A. Petersson, H. Nakatsuji, X. Li, M. Caricato, A. V. Marenich, 
 J. Bloino, B. G. Janesko, R. Gomperts, B. Mennucci, H. P. Hratchian, 
 J. V. Ortiz, A. F. Izmaylov, J. L. Sonnenberg, D. Williams-Young, 
 F. Ding, F. Lipparini, F. Egidi, J. Goings, B. Peng, A. Petrone, 
 T. Henderson, D. Ranasinghe, V. G. Zakrzewski, J. Gao, N. Rega, 
 G. Zheng, W. Liang, M. Hada, M. Ehara, K. Toyota, R. Fukuda, 
 J. Hasegawa, M. Ishida, T. Nakajima, Y. Honda, O. Kitao, H. Nakai, 
 T. Vreven, K. Throssell, J. A. Montgomery, Jr., J. E. Peralta, 
 F. Ogliaro, M. J. Bearpark, J. J. Heyd, E. N. Brothers, K. N. Kudin, 
 V. N. Staroverov, T. A. Keith, R. Kobayashi, J. Normand, 
 K. Raghavachari, A. P. Rendell, J. C. Burant, S. S. Iyengar, 
 J. Tomasi, M. Cossi, J. M. Millam, M. Klene, C. Adamo, R. Cammi, 
 J. W. Ochterski, R. L. Martin, K. Morokuma, O. Farkas, 
 J. B. Foresman, and D. J. Fox, Gaussian, Inc., Wallingford CT, 2016.
 
 ******************************************
 Gaussian 16:  EM64L-G16RevB.01 20-Dec-2017
                10-Nov-2023 
 ******************************************
 %nproc=4
 Will use up to    4 processors via shared memory.
 %Mem=2Gb
 ---------------------------------
 # TD=(NStates=1) B3LYP/6-31G(d,p)
 ---------------------------------
 1/38=1,172=1/1;
 2/12=2,17=6,18=5,40=1/2;
 3/5=1,6=6,7=101,11=9,25=1,30=1,74=-5/1,2,3,8;
 4//1;
 5/5=2,38=5/2;
 8/6=1,10=2,108=1/1;
 9/41=1,42=1,70=2/14;
 6/7=2,8=2,9=2,10=2/1;
 99/5=1,9=1/99;
 -------
 ABSSPCT
 -------
 Symbolic Z-matrix:
 Charge =  0 Multiplicity = 1
 6                    -0.22987   1.45223  -0.00405 
 6                     1.05024   0.90773   0.01165 
 6                     1.27612  -0.4989   -0.04429 
 6                     0.28116  -1.41724   0.015 
 6                    -1.03649  -0.89244   0.01806 
 6                    -1.35237   0.42326  -0.02104 
 1                    -0.34358   2.45129   0.14471 
 1                    -2.30145   0.91352  -0.00338 
 1                    -1.72709  -1.5403   -0.08673 
 1                     0.40271  -2.52302   0.16973 
 1                     2.37132  -0.6653   -0.00399 
 1                     1.73924   1.64227   0.10057 
 
                          Input orientation:                          
 ---------------------------------------------------------------------
 Center     Atomic      Atomic             Coordinates (Angstroms)
 Number     Number       Type             X           Y           Z
 ---------------------------------------------------------------------
      1          6           0       -0.229867    1.452231   -0.004050
      2          6           0        1.050243    0.907731    0.011649
      3          6           0        1.276120   -0.498896   -0.044287
      4          6           0        0.281162   -1.417243    0.015004
      5          6           0       -1.036495   -0.892441    0.018055
      6          6           0       -1.352374    0.423261   -0.021038
      7          1           0       -0.343585    2.451291    0.144712
      8          1           0       -2.301449    0.913521   -0.003383
      9          1           0       -1.727094   -1.540303   -0.086726
     10          1           0        0.402708   -2.523017    0.169727
     11          1           0        2.371325   -0.665299   -0.003989
     12          1           0        1.739240    1.642274    0.100574
 ---------------------------------------------------------------------
                    Distance matrix (angstroms):
                    1          2          3          4          5
     1  C    0.000000
     2  C    1.391189   0.000000
     3  C    2.465058   1.425746   0.000000
     4  C    2.914686   2.448878   1.355292   0.000000
     5  C    2.479642   2.755927   2.346690   1.418325   0.000000
     6  C    1.522855   2.451193   2.785659   2.461137   1.353655
     7  H    1.016457   2.083996   3.370871   3.920802   3.417120
     8  H    2.140482   3.351731   3.846505   3.478891   2.205010
     9  H    3.347206   3.703533   3.178935   2.014594   0.952698
    10  H    4.029012   3.494899   2.214884   1.123142   2.180157
    11  H    3.354121   2.054246   1.108506   2.221387   3.415452
    12  H    1.981020   1.011028   2.195467   3.390274   3.759826
                    6          7          8          9         10
     6  C    0.000000
     7  H    2.271130   0.000000
     8  H    1.068368   2.493973   0.000000
     9  H    2.000079   4.230897   2.521524   0.000000
    10  H    3.434714   5.030041   4.376326   2.359566   0.000000
    11  H    3.879585   4.135937   4.932290   4.191601   2.712332
    12  H    3.325486   2.234863   4.107195   4.709496   4.375014
                   11         12
    11  H    0.000000
    12  H    2.394861   0.000000
 Stoichiometry    C6H6
 Framework group  C1[X(C6H6)]
 Deg. of freedom    30
 Full point group                 C1      NOp   1
 Largest Abelian subgroup         C1      NOp   1
 Largest concise Abelian subgroup C1      NOp   1
                         Standard orientation:                         
 ---------------------------------------------------------------------
 Center     Atomic      Atomic             Coordinates (Angstroms)
 Number     Number       Type             X           Y           Z
 ---------------------------------------------------------------------
      1          6           0        1.465165    0.084569   -0.010254
      2          6           0        0.794571   -1.134263    0.002405
      3          6           0       -0.627740   -1.217183   -0.051508
      4          6           0       -1.441146   -0.135029    0.012765
      5          6           0       -0.786338    1.123078    0.019014
      6          6           0        0.554418    1.305019   -0.021635
      7          1           0        2.470838    0.096620    0.136921
      8          1           0        1.137772    2.199848   -0.001896
      9          1           0       -1.361544    1.875746   -0.082289
     10          1           0       -2.553286   -0.145152    0.169255
     11          1           0       -0.903502   -2.290200   -0.014395
     12          1           0        1.456152   -1.894008    0.087688
 ---------------------------------------------------------------------
 Rotational constants (GHZ):           5.8389678           5.4307027           2.8170205
 Standard basis: 6-31G(d,p) (6D, 7F)
 There are   120 symmetry adapted cartesian basis functions of A   symmetry.
 There are   120 symmetry adapted basis functions of A   symmetry.
   120 basis functions,   210 primitive gaussians,   120 cartesian basis functions
    21 alpha electrons       21 beta electrons
       nuclear repulsion energy       203.0120208300 Hartrees.
 NAtoms=   12 NActive=   12 NUniq=   12 SFac= 1.00D+00 NAtFMM=   60 NAOKFM=F Big=F
 Integral buffers will be    131072 words long.
 Regular integral format.
 Two-electron integral symmetry is turned on.
 One-electron integrals computed using PRISM.
 NBasis=   120 RedAO= T EigKep=  6.45D-04  NBF=   120
 NBsUse=   120 1.00D-06 EigRej= -1.00D+00 NBFU=   120
 ExpMin= 1.61D-01 ExpMax= 3.05D+03 ExpMxC= 4.57D+02 IAcc=3 IRadAn=         5 AccDes= 0.00D+00
 Harris functional with IExCor=  402 and IRadAn=       5 diagonalized for initial guess.
 HarFok:  IExCor=  402 AccDes= 0.00D+00 IRadAn=         5 IDoV= 1 UseB2=F ITyADJ=14
 ICtDFT=  3500011 ScaDFX=  1.000000  1.000000  1.000000  1.000000
 FoFCou: FMM=F IPFlag=           0 FMFlag=      100000 FMFlg1=           0
         NFxFlg=           0 DoJE=T BraDBF=F KetDBF=T FulRan=T
         wScrn=  0.000000 ICntrl=       500 IOpCl=  0 I1Cent=   200000004 NGrid=           0
         NMat0=    1 NMatS0=      1 NMatT0=    0 NMatD0=    1 NMtDS0=    0 NMtDT0=    0
 Petite list used in FoFCou.
 Keep R1 ints in memory in canonical form, NReq=30147728.
 Requested convergence on RMS density matrix=1.00D-08 within 128 cycles.
 Requested convergence on MAX density matrix=1.00D-06.
 Requested convergence on             energy=1.00D-06.
 No special actions if energy rises.
 Integral accuracy reduced to 1.0D-05 until final iterations.
 Initial convergence to 1.0D-05 achieved.  Increase integral accuracy.
 SCF Done:  E(RB3LYP) =  -232.203951987     A.U. after   13 cycles
            NFock= 13  Conv=0.23D-08     -V/T= 2.0087
 DoSCS=F DFT=T ScalE2(SS,OS)=  1.000000  1.000000
 ExpMin= 1.61D-01 ExpMax= 3.05D+03 ExpMxC= 4.57D+02 IAcc=3 IRadAn=         5 AccDes= 0.00D+00
 HarFok:  IExCor=  205 AccDes= 0.00D+00 IRadAn=         5 IDoV=-2 UseB2=F ITyADJ=14
 ICtDFT= 12500011 ScaDFX=  1.000000  1.000000  1.000000  1.000000
 Range of M.O.s used for correlation:     7   120
 NBasis=   120 NAE=    21 NBE=    21 NFC=     6 NFV=     0
 NROrb=    114 NOA=    15 NOB=    15 NVA=    99 NVB=    99
 Keep R1, R2, and R3 ints in memory in canonical form, NReq=84032236.
 Orbital symmetries:
       Occupied  (A) (A) (A) (A) (A) (A) (A) (A) (A) (A) (A) (A)
                 (A) (A) (A) (A) (A) (A) (A) (A) (A)
       Virtual   (A) (A) (A) (A) (A) (A) (A) (A) (A) (A) (A) (A)
                 (A) (A) (A) (A) (A) (A) (A) (A) (A) (A) (A) (A)
                 (A) (A) (A) (A) (A) (A) (A) (A) (A) (A) (A) (A)
                 (A) (A) (A) (A) (A) (A) (A) (A) (A) (A) (A) (A)
                 (A) (A) (A) (A) (A) (A) (A) (A) (A) (A) (A) (A)
                 (A) (A) (A) (A) (A) (A) (A) (A) (A) (A) (A) (A)
                 (A) (A) (A) (A) (A) (A) (A) (A) (A) (A) (A) (A)
                 (A) (A) (A) (A) (A) (A) (A) (A) (A) (A) (A) (A)
                 (A) (A) (A)
     4 initial guesses have been made.
 Convergence on wavefunction:    0.001000000000000
 Iteration     1 Dimension     4 NMult     0 NNew      4
 CISAX will form     4 AO SS matrices at one time.
 New state      1 was old state      2
 Iteration     2 Dimension     6 NMult     4 NNew      2
 Iteration     3 Dimension     8 NMult     6 NNew      2
 Iteration     4 Dimension    10 NMult     8 NNew      2
 Iteration     5 Dimension    12 NMult    10 NNew      2
 ***********************************************************************
 Excited states from <AA,BB:AA,BB> singles matrix:
 ***********************************************************************
 
 Ground to excited state transition densities written to RWF  633
 Ground to excited state transition electric dipole moments (Au):
       state          X           Y           Z        Dip. S.      Osc.
         1        -0.0285     -0.1224      0.0005      0.0158      0.0021
 Ground to excited state transition velocity dipole moments (Au):
       state          X           Y           Z        Dip. S.      Osc.
         1         0.0053      0.0252      0.0003      0.0007      0.0022
 Ground to excited state transition magnetic dipole moments (Au):
       state          X           Y           Z
         1        -0.0458     -0.0117     -0.0243
 Ground to excited state transition velocity quadrupole moments (Au):
       state          XX          YY          ZZ          XY          XZ          YZ
         1         0.0201      0.0084     -0.0116     -0.0040      0.0017     -0.0123
 <0|del|b> * <b|rxdel|0> + <0|del|b> * <b|delr+rdel|0>
 Rotatory Strengths (R) in cgs (10**-40 erg-esu-cm/Gauss)
       state          XX          YY          ZZ    R(velocity)    E-M Angle
         1        -0.6193     -0.5643     -0.7680     -0.6505      113.54
 1/2[<0|r|b>*<b|rxdel|0> + (<0|rxdel|b>*<b|r|0>)*]
 Rotatory Strengths (R) in cgs (10**-40 erg-esu-cm/Gauss)
       state          XX          YY          ZZ     R(length)
         1        -0.9232     -1.0127      0.0090     -0.6423
  1/2[<0|del|b>*<b|r|0> + (<0|r|b>*<b|del|0>)*] (Au)
       state          X           Y           Z        Dip. S.   Osc.(frdel)
         1        -0.0002     -0.0031      0.0000      0.0032      0.0022

 Excitation energies and oscillator strengths:
 
 Excited State   1:      Singlet-A      5.3978 eV  229.69 nm  f=0.0021  <S**2>=0.000
      20 -> 22         0.52394
      21 -> 22         0.13597
      21 -> 23        -0.44508
 This state for optimization and/or second-order correction.
 Total Energy, E(TD-HF/TD-DFT) =  -232.005587387    
 Copying the excited state density for this state as the 1-particle RhoCI density.
 SavETr:  write IOETrn=   770 NScale= 10 NData=  16 NLR=1 NState=    1 LETran=      28.

 **********************************************************************

            Population analysis using the SCF Density.

 **********************************************************************

 Orbital symmetries:
       Occupied  (A) (A) (A) (A) (A) (A) (A) (A) (A) (A) (A) (A)
                 (A) (A) (A) (A) (A) (A) (A) (A) (A)
       Virtual   (A) (A) (A) (A) (A) (A) (A) (A) (A) (A) (A) (A)
                 (A) (A) (A) (A) (A) (A) (A) (A) (A) (A) (A) (A)
                 (A) (A) (A) (A) (A) (A) (A) (A) (A) (A) (A) (A)
                 (A) (A) (A) (A) (A) (A) (A) (A) (A) (A) (A) (A)
                 (A) (A) (A) (A) (A) (A) (A) (A) (A) (A) (A) (A)
                 (A) (A) (A) (A) (A) (A) (A) (A) (A) (A) (A) (A)
                 (A) (A) (A) (A) (A) (A) (A) (A) (A) (A) (A) (A)
                 (A) (A) (A) (A) (A) (A) (A) (A) (A) (A) (A) (A)
                 (A) (A) (A)
 The electronic state is 1-A.
 Alpha  occ. eigenvalues --  -10.19356 -10.19126 -10.19000 -10.18522 -10.17810
 Alpha  occ. eigenvalues --  -10.17274  -0.84269  -0.74906  -0.73468  -0.60629
 Alpha  occ. eigenvalues --   -0.60113  -0.51961  -0.47453  -0.44591  -0.41855
 Alpha  occ. eigenvalues --   -0.41338  -0.35939  -0.34514  -0.31909  -0.24747
 Alpha  occ. eigenvalues --   -0.24227
 Alpha virt. eigenvalues --   -0.00791   0.00743   0.09937   0.14490   0.14787
 Alpha virt. eigenvalues --    0.15772   0.16834   0.19714   0.21019   0.26500
 Alpha virt. eigenvalues --    0.29351   0.31152   0.33796   0.46816   0.51350
 Alpha virt. eigenvalues --    0.52954   0.54091   0.55693   0.58947   0.59572
 Alpha virt. eigenvalues --    0.59842   0.60340   0.61206   0.63965   0.65552
 Alpha virt. eigenvalues --    0.66400   0.67309   0.74007   0.80990   0.82912
 Alpha virt. eigenvalues --    0.83458   0.88030   0.88764   0.91625   0.94618
 Alpha virt. eigenvalues --    0.95546   0.97073   1.05536   1.07644   1.08692
 Alpha virt. eigenvalues --    1.14058   1.17870   1.26961   1.27178   1.34445
 Alpha virt. eigenvalues --    1.38623   1.41038   1.44828   1.47357   1.53060
 Alpha virt. eigenvalues --    1.68432   1.76263   1.81329   1.85961   1.90766
 Alpha virt. eigenvalues --    1.92898   1.95940   1.96152   1.98078   2.02194
 Alpha virt. eigenvalues --    2.03119   2.06407   2.09386   2.22678   2.28331
 Alpha virt. eigenvalues --    2.32657   2.35591   2.36638   2.41215   2.43236
 Alpha virt. eigenvalues --    2.45876   2.47883   2.50466   2.52049   2.54440
 Alpha virt. eigenvalues --    2.56808   2.59232   2.61941   2.64486   2.71462
 Alpha virt. eigenvalues --    2.78698   2.81897   2.85228   3.00858   3.05804
 Alpha virt. eigenvalues --    3.18206   3.22170   3.33338   3.46580   3.54776
 Alpha virt. eigenvalues --    3.59035   3.74126   3.99640   4.12394   4.17101
 Alpha virt. eigenvalues --    4.18531   4.44630   4.46093   4.83042
          Condensed to atoms (all electrons):
               1          2          3          4          5          6
     1  C    4.859198   0.575095  -0.030828  -0.038023  -0.026043   0.479971
     2  C    0.575095   4.795161   0.518094  -0.037220  -0.038283  -0.036305
     3  C   -0.030828   0.518094   4.812045   0.567138  -0.031646  -0.046138
     4  C   -0.038023  -0.037220   0.567138   4.835275   0.503284  -0.027918
     5  C   -0.026043  -0.038283  -0.031646   0.503284   4.760278   0.584312
     6  C    0.479971  -0.036305  -0.046138  -0.027918   0.584312   4.846353
     7  H    0.370212  -0.042906   0.006182   0.000545   0.003957  -0.039174
     8  H   -0.050369   0.004987   0.000647   0.004282  -0.040250   0.371462
     9  H    0.005971   0.000926   0.007519  -0.051948   0.382298  -0.055857
    10  H    0.000286   0.003442  -0.037191   0.369536  -0.039583   0.004319
    11  H    0.005935  -0.051693   0.363163  -0.041063   0.005005   0.000727
    12  H   -0.054634   0.377765  -0.043984   0.005317   0.000429   0.006939
               7          8          9         10         11         12
     1  C    0.370212  -0.050369   0.005971   0.000286   0.005935  -0.054634
     2  C   -0.042906   0.004987   0.000926   0.003442  -0.051693   0.377765
     3  C    0.006182   0.000647   0.007519  -0.037191   0.363163  -0.043984
     4  C    0.000545   0.004282  -0.051948   0.369536  -0.041063   0.005317
     5  C    0.003957  -0.040250   0.382298  -0.039583   0.005005   0.000429
     6  C   -0.039174   0.371462  -0.055857   0.004319   0.000727   0.006939
     7  H    0.631407  -0.003540  -0.000200   0.000014  -0.000281  -0.009851
     8  H   -0.003540   0.633263  -0.007068  -0.000126   0.000017  -0.000364
     9  H   -0.000200  -0.007068   0.656304  -0.007568  -0.000294   0.000019
    10  H    0.000014  -0.000126  -0.007568   0.616229  -0.004561  -0.000124
    11  H   -0.000281   0.000017  -0.000294  -0.004561   0.651411  -0.008136
    12  H   -0.009851  -0.000364   0.000019  -0.000124  -0.008136   0.649823
 Mulliken charges:
               1
     1  C   -0.096770
     2  C   -0.069062
     3  C   -0.085001
     4  C   -0.089206
     5  C   -0.063758
     6  C   -0.088690
     7  H    0.083634
     8  H    0.087058
     9  H    0.069896
    10  H    0.095327
    11  H    0.079770
    12  H    0.076802
 Sum of Mulliken charges =  -0.00000
 Mulliken charges with hydrogens summed into heavy atoms:
               1
     1  C   -0.013136
     2  C    0.007740
     3  C   -0.005231
     4  C    0.006121
     5  C    0.006138
     6  C   -0.001632
 Electronic spatial extent (au):  <R**2>=            459.4190
 Charge=              0.0000 electrons
 Dipole moment (field-independent basis, Debye):
    X=              0.1282    Y=              0.0131    Z=              0.1915  Tot=              0.2308
 Quadrupole moment (field-independent basis, Debye-Ang):
   XX=            -30.5768   YY=            -32.1554   ZZ=            -38.3303
   XY=             -0.4202   XZ=              0.1537   YZ=             -0.2576
 Traceless Quadrupole moment (field-independent basis, Debye-Ang):
   XX=              3.1107   YY=              1.5321   ZZ=             -4.6428
   XY=             -0.4202   XZ=              0.1537   YZ=             -0.2576
 Octapole moment (field-independent basis, Debye-Ang**2):
  XXX=              0.7275  YYY=             -0.2849  ZZZ=              0.2586  XYY=              1.3481
  XXY=              1.0274  XXZ=              1.6964  XZZ=             -0.0373  YZZ=              0.1360
  YYZ=              0.0976  XYZ=              0.0833
 Hexadecapole moment (field-independent basis, Debye-Ang**3):
 XXXX=           -271.6838 YYYY=           -267.1263 ZZZZ=            -40.1431 XXXY=             -4.0920
 XXXZ=              0.0620 YYYX=             -0.1247 YYYZ=             -1.1562 ZZZX=              0.2943
 ZZZY=             -0.3343 XXYY=            -91.6762 XXZZ=            -61.4610 YYZZ=            -58.3221
 XXYZ=             -0.7443 YYXZ=              0.8665 ZZXY=             -0.7196
 N-N= 2.030120208300D+02 E-N=-9.435110252439D+02  KE= 2.302097352587D+02
 1\1\GINC-DESKTOP-PRN5QE3\SP\RB3LYP TD-FC\6-31G(d,p)\C6H6\SHOHEI\10-Nov
 -2023\0\\# TD=(NStates=1) B3LYP/6-31G(d,p)\\ABSSPCT\\0,1\C,0,-0.229866
 5763,1.4522306826,-0.004050108\C,0,1.0502431449,0.9077313747,0.0116486
 259\C,0,1.2761202338,-0.4988963682,-0.044287097\C,0,0.2811622457,-1.41
 72430105,0.0150044284\C,0,-1.0364946639,-0.8924410068,0.0180554198\C,0
 ,-1.3523736746,0.4232613946,-0.0210378932\H,0,-0.3435845143,2.45129124
 1,0.1447118222\H,0,-2.3014490288,0.9135211651,-0.0033833999\H,0,-1.727
 09436,-1.5403032509,-0.0867262104\H,0,0.4027082693,-2.5230165652,0.169
 7270827\H,0,2.3713246152,-0.665298802,-0.0039885529\H,0,1.7392395691,1
 .6422742163,0.100574469\\Version=EM64L-G16RevB.01\State=1-A\HF=-232.20
 3952\RMSD=2.297e-09\PG=C01 [X(C6H6)]\\@


 THOSE WITH THE GOLD MAKE THE RULES.

             -- PETER'S GOLDEN RULE
 Job cpu time:       0 days  0 hours  3 minutes  5.4 seconds.
 Elapsed time:       0 days  0 hours  0 minutes 47.0 seconds.
 File lengths (MBytes):  RWF=    116 Int=      0 D2E=      0 Chk=      3 Scr=      1
 Normal termination of Gaussian 16 at Fri Nov 10 16:58:11 2023.
