 Entering Gaussian System, Link 0=g16
 Input=Geometry-491-.com
 Output=Geometry-491-.log
 Initial command:
 /home/shohei/gaussian/g16/l1.exe "/home/shohei/gaussian/scratch/Gau-11937.inp" -scrdir="/home/shohei/gaussian/scratch/"
 Entering Link 1 = /home/shohei/gaussian/g16/l1.exe PID=     11939.
  
 Copyright (c) 1988-2017, Gaussian, Inc.  All Rights Reserved.
  
 This is part of the Gaussian(R) 16 program.  It is based on
 the Gaussian(R) 09 system (copyright 2009, Gaussian, Inc.),
 the Gaussian(R) 03 system (copyright 2003, Gaussian, Inc.),
 the Gaussian(R) 98 system (copyright 1998, Gaussian, Inc.),
 the Gaussian(R) 94 system (copyright 1995, Gaussian, Inc.),
 the Gaussian 92(TM) system (copyright 1992, Gaussian, Inc.),
 the Gaussian 90(TM) system (copyright 1990, Gaussian, Inc.),
 the Gaussian 88(TM) system (copyright 1988, Gaussian, Inc.),
 the Gaussian 86(TM) system (copyright 1986, Carnegie Mellon
 University), and the Gaussian 82(TM) system (copyright 1983,
 Carnegie Mellon University). Gaussian is a federally registered
 trademark of Gaussian, Inc.
  
 This software contains proprietary and confidential information,
 including trade secrets, belonging to Gaussian, Inc.
  
 This software is provided under written license and may be
 used, copied, transmitted, or stored only in accord with that
 written license.
  
 The following legend is applicable only to US Government
 contracts under FAR:
  
                    RESTRICTED RIGHTS LEGEND
  
 Use, reproduction and disclosure by the US Government is
 subject to restrictions as set forth in subparagraphs (a)
 and (c) of the Commercial Computer Software - Restricted
 Rights clause in FAR 52.227-19.
  
 Gaussian, Inc.
 340 Quinnipiac St., Bldg. 40, Wallingford CT 06492
  
  
 ---------------------------------------------------------------
 Warning -- This program may not be used in any manner that
 competes with the business of Gaussian, Inc. or will provide
 assistance to any competitor of Gaussian, Inc.  The licensee
 of this program is prohibited from giving any competitor of
 Gaussian, Inc. access to this program.  By using this program,
 the user acknowledges that Gaussian, Inc. is engaged in the
 business of creating and licensing software in the field of
 computational chemistry and represents and warrants to the
 licensee that it is not a competitor of Gaussian, Inc. and that
 it will not use this program in any manner prohibited above.
 ---------------------------------------------------------------
  

 Cite this work as:
 Gaussian 16, Revision B.01,
 M. J. Frisch, G. W. Trucks, H. B. Schlegel, G. E. Scuseria, 
 M. A. Robb, J. R. Cheeseman, G. Scalmani, V. Barone, 
 G. A. Petersson, H. Nakatsuji, X. Li, M. Caricato, A. V. Marenich, 
 J. Bloino, B. G. Janesko, R. Gomperts, B. Mennucci, H. P. Hratchian, 
 J. V. Ortiz, A. F. Izmaylov, J. L. Sonnenberg, D. Williams-Young, 
 F. Ding, F. Lipparini, F. Egidi, J. Goings, B. Peng, A. Petrone, 
 T. Henderson, D. Ranasinghe, V. G. Zakrzewski, J. Gao, N. Rega, 
 G. Zheng, W. Liang, M. Hada, M. Ehara, K. Toyota, R. Fukuda, 
 J. Hasegawa, M. Ishida, T. Nakajima, Y. Honda, O. Kitao, H. Nakai, 
 T. Vreven, K. Throssell, J. A. Montgomery, Jr., J. E. Peralta, 
 F. Ogliaro, M. J. Bearpark, J. J. Heyd, E. N. Brothers, K. N. Kudin, 
 V. N. Staroverov, T. A. Keith, R. Kobayashi, J. Normand, 
 K. Raghavachari, A. P. Rendell, J. C. Burant, S. S. Iyengar, 
 J. Tomasi, M. Cossi, J. M. Millam, M. Klene, C. Adamo, R. Cammi, 
 J. W. Ochterski, R. L. Martin, K. Morokuma, O. Farkas, 
 J. B. Foresman, and D. J. Fox, Gaussian, Inc., Wallingford CT, 2016.
 
 ******************************************
 Gaussian 16:  EM64L-G16RevB.01 20-Dec-2017
                10-Nov-2023 
 ******************************************
 %nproc=4
 Will use up to    4 processors via shared memory.
 %Mem=2Gb
 ---------------------------------
 # TD=(NStates=1) B3LYP/6-31G(d,p)
 ---------------------------------
 1/38=1,172=1/1;
 2/12=2,17=6,18=5,40=1/2;
 3/5=1,6=6,7=101,11=9,25=1,30=1,74=-5/1,2,3,8;
 4//1;
 5/5=2,38=5/2;
 8/6=1,10=2,108=1/1;
 9/41=1,42=1,70=2/14;
 6/7=2,8=2,9=2,10=2/1;
 99/5=1,9=1/99;
 -------
 ABSSPCT
 -------
 Symbolic Z-matrix:
 Charge =  0 Multiplicity = 1
 6                    -0.24395   1.33995  -0.03944 
 6                     1.07198   0.93979   0.00112 
 6                     1.25797  -0.4414    0.0422 
 6                     0.23159  -1.37763   0.02352 
 6                    -1.05078  -0.88572  -0.08493 
 6                    -1.27135   0.42673   0.04999 
 1                    -0.56772   2.41141   0.10831 
 1                    -2.08597   0.85354   0.19624 
 1                    -1.92462  -1.63906   0.11029 
 1                     0.55672  -2.34929  -0.06049 
 1                     2.17972  -0.94538   0.00712 
 1                     1.91087   1.65279  -0.19941 
 
                          Input orientation:                          
 ---------------------------------------------------------------------
 Center     Atomic      Atomic             Coordinates (Angstroms)
 Number     Number       Type             X           Y           Z
 ---------------------------------------------------------------------
      1          6           0       -0.243953    1.339954   -0.039442
      2          6           0        1.071983    0.939789    0.001124
      3          6           0        1.257969   -0.441403    0.042200
      4          6           0        0.231595   -1.377631    0.023517
      5          6           0       -1.050782   -0.885721   -0.084933
      6          6           0       -1.271350    0.426728    0.049987
      7          1           0       -0.567720    2.411405    0.108312
      8          1           0       -2.085974    0.853537    0.196243
      9          1           0       -1.924624   -1.639056    0.110291
     10          1           0        0.556721   -2.349286   -0.060491
     11          1           0        2.179720   -0.945379    0.007123
     12          1           0        1.910874    1.652793   -0.199414
 ---------------------------------------------------------------------
                    Distance matrix (angstroms):
                    1          2          3          4          5
     1  C    0.000000
     2  C    1.376033   0.000000
     3  C    2.331452   1.394263   0.000000
     4  C    2.759597   2.465196   1.389358   0.000000
     5  C    2.367841   2.801076   2.354551   1.377761   0.000000
     6  C    1.377506   2.399340   2.674166   2.348458   1.337676
     7  H    1.129011   2.205849   3.387629   3.873357   3.337924
     8  H    1.919684   3.165154   3.589227   3.221656   2.043453
     9  H    3.423679   3.954999   3.401163   2.173741   1.170140
    10  H    3.775183   3.329760   2.035267   1.028045   2.174094
    11  H    3.331533   2.186545   1.051118   1.995571   3.232364
    12  H    2.183287   1.119074   2.206880   3.471764   3.902379
                    6          7          8          9         10
     6  C    0.000000
     7  H    2.106523   0.000000
     8  H    0.931219   2.177103   0.000000
     9  H    2.167457   4.271701   2.499289   0.000000
    10  H    3.325703   4.894593   4.160267   2.586632   0.000000
    11  H    3.714081   4.338971   4.633358   4.163829   2.147010
    12  H    3.419355   2.610291   4.095137   5.063915   4.227252
                   11         12
    11  H    0.000000
    12  H    2.620197   0.000000
 Stoichiometry    C6H6
 Framework group  C1[X(C6H6)]
 Deg. of freedom    30
 Full point group                 C1      NOp   1
 Largest Abelian subgroup         C1      NOp   1
 Largest concise Abelian subgroup C1      NOp   1
                         Standard orientation:                         
 ---------------------------------------------------------------------
 Center     Atomic      Atomic             Coordinates (Angstroms)
 Number     Number       Type             X           Y           Z
 ---------------------------------------------------------------------
      1          6           0        1.177435   -0.684989    0.045377
      2          6           0        1.247722    0.688180   -0.008794
      3          6           0        0.011610    1.331679   -0.052444
      4          6           0       -1.217426    0.684405   -0.023764
      5          6           0       -1.189820   -0.687689    0.097990
      6          6           0       -0.030636   -1.342090   -0.034029
      7          1           0        2.074861   -1.354749   -0.098541
      8          1           0        0.093790   -2.254622   -0.171765
      9          1           0       -2.195680   -1.255687   -0.088691
     10          1           0       -2.020714    1.320936    0.056447
     11          1           0       -0.149359    2.370087   -0.027009
     12          1           0        2.203795    1.237052    0.183538
 ---------------------------------------------------------------------
 Rotational constants (GHZ):           6.0707224           5.6993965           2.9488581
 Standard basis: 6-31G(d,p) (6D, 7F)
 There are   120 symmetry adapted cartesian basis functions of A   symmetry.
 There are   120 symmetry adapted basis functions of A   symmetry.
   120 basis functions,   210 primitive gaussians,   120 cartesian basis functions
    21 alpha electrons       21 beta electrons
       nuclear repulsion energy       206.7838525910 Hartrees.
 NAtoms=   12 NActive=   12 NUniq=   12 SFac= 1.00D+00 NAtFMM=   60 NAOKFM=F Big=F
 Integral buffers will be    131072 words long.
 Regular integral format.
 Two-electron integral symmetry is turned on.
 One-electron integrals computed using PRISM.
 NBasis=   120 RedAO= T EigKep=  7.62D-04  NBF=   120
 NBsUse=   120 1.00D-06 EigRej= -1.00D+00 NBFU=   120
 ExpMin= 1.61D-01 ExpMax= 3.05D+03 ExpMxC= 4.57D+02 IAcc=3 IRadAn=         5 AccDes= 0.00D+00
 Harris functional with IExCor=  402 and IRadAn=       5 diagonalized for initial guess.
 HarFok:  IExCor=  402 AccDes= 0.00D+00 IRadAn=         5 IDoV= 1 UseB2=F ITyADJ=14
 ICtDFT=  3500011 ScaDFX=  1.000000  1.000000  1.000000  1.000000
 FoFCou: FMM=F IPFlag=           0 FMFlag=      100000 FMFlg1=           0
         NFxFlg=           0 DoJE=T BraDBF=F KetDBF=T FulRan=T
         wScrn=  0.000000 ICntrl=       500 IOpCl=  0 I1Cent=   200000004 NGrid=           0
         NMat0=    1 NMatS0=      1 NMatT0=    0 NMatD0=    1 NMtDS0=    0 NMtDT0=    0
 Petite list used in FoFCou.
 Keep R1 ints in memory in canonical form, NReq=30147728.
 Requested convergence on RMS density matrix=1.00D-08 within 128 cycles.
 Requested convergence on MAX density matrix=1.00D-06.
 Requested convergence on             energy=1.00D-06.
 No special actions if energy rises.
 Integral accuracy reduced to 1.0D-05 until final iterations.
 Initial convergence to 1.0D-05 achieved.  Increase integral accuracy.
 SCF Done:  E(RB3LYP) =  -232.203375104     A.U. after   13 cycles
            NFock= 13  Conv=0.64D-08     -V/T= 2.0073
 DoSCS=F DFT=T ScalE2(SS,OS)=  1.000000  1.000000
 ExpMin= 1.61D-01 ExpMax= 3.05D+03 ExpMxC= 4.57D+02 IAcc=3 IRadAn=         5 AccDes= 0.00D+00
 HarFok:  IExCor=  205 AccDes= 0.00D+00 IRadAn=         5 IDoV=-2 UseB2=F ITyADJ=14
 ICtDFT= 12500011 ScaDFX=  1.000000  1.000000  1.000000  1.000000
 Range of M.O.s used for correlation:     7   120
 NBasis=   120 NAE=    21 NBE=    21 NFC=     6 NFV=     0
 NROrb=    114 NOA=    15 NOB=    15 NVA=    99 NVB=    99
 Keep R1, R2, and R3 ints in memory in canonical form, NReq=84032236.
 Orbital symmetries:
       Occupied  (A) (A) (A) (A) (A) (A) (A) (A) (A) (A) (A) (A)
                 (A) (A) (A) (A) (A) (A) (A) (A) (A)
       Virtual   (A) (A) (A) (A) (A) (A) (A) (A) (A) (A) (A) (A)
                 (A) (A) (A) (A) (A) (A) (A) (A) (A) (A) (A) (A)
                 (A) (A) (A) (A) (A) (A) (A) (A) (A) (A) (A) (A)
                 (A) (A) (A) (A) (A) (A) (A) (A) (A) (A) (A) (A)
                 (A) (A) (A) (A) (A) (A) (A) (A) (A) (A) (A) (A)
                 (A) (A) (A) (A) (A) (A) (A) (A) (A) (A) (A) (A)
                 (A) (A) (A) (A) (A) (A) (A) (A) (A) (A) (A) (A)
                 (A) (A) (A) (A) (A) (A) (A) (A) (A) (A) (A) (A)
                 (A) (A) (A)
     4 initial guesses have been made.
 Convergence on wavefunction:    0.001000000000000
 Iteration     1 Dimension     4 NMult     0 NNew      4
 CISAX will form     4 AO SS matrices at one time.
 Iteration     2 Dimension     6 NMult     4 NNew      2
 Iteration     3 Dimension     8 NMult     6 NNew      2
 Iteration     4 Dimension    10 NMult     8 NNew      2
 Iteration     5 Dimension    12 NMult    10 NNew      2
 ***********************************************************************
 Excited states from <AA,BB:AA,BB> singles matrix:
 ***********************************************************************
 
 Ground to excited state transition densities written to RWF  633
 Ground to excited state transition electric dipole moments (Au):
       state          X           Y           Z        Dip. S.      Osc.
         1        -0.1228      0.0786     -0.0120      0.0214      0.0029
 Ground to excited state transition velocity dipole moments (Au):
       state          X           Y           Z        Dip. S.      Osc.
         1         0.0254     -0.0168      0.0021      0.0009      0.0030
 Ground to excited state transition magnetic dipole moments (Au):
       state          X           Y           Z
         1         0.0137      0.0239      0.0208
 Ground to excited state transition velocity quadrupole moments (Au):
       state          XX          YY          ZZ          XY          XZ          YZ
         1        -0.0041      0.0001      0.0024      0.0068     -0.0204      0.0084
 <0|del|b> * <b|rxdel|0> + <0|del|b> * <b|delr+rdel|0>
 Rotatory Strengths (R) in cgs (10**-40 erg-esu-cm/Gauss)
       state          XX          YY          ZZ    R(velocity)    E-M Angle
         1        -1.1780      1.0209      0.1339     -0.0077       90.00
 1/2[<0|r|b>*<b|rxdel|0> + (<0|rxdel|b>*<b|r|0>)*]
 Rotatory Strengths (R) in cgs (10**-40 erg-esu-cm/Gauss)
       state          XX          YY          ZZ     R(length)
         1         1.1923     -1.3260      0.1762      0.0142
  1/2[<0|del|b>*<b|r|0> + (<0|r|b>*<b|del|0>)*] (Au)
       state          X           Y           Z        Dip. S.   Osc.(frdel)
         1        -0.0031     -0.0013     -0.0000      0.0045      0.0030

 Excitation energies and oscillator strengths:
 
 Excited State   1:      Singlet-A      5.5831 eV  222.07 nm  f=0.0029  <S**2>=0.000
      20 -> 22         0.19662
      20 -> 23         0.41222
      21 -> 22         0.50195
      21 -> 23        -0.19744
 This state for optimization and/or second-order correction.
 Total Energy, E(TD-HF/TD-DFT) =  -231.998200574    
 Copying the excited state density for this state as the 1-particle RhoCI density.
 SavETr:  write IOETrn=   770 NScale= 10 NData=  16 NLR=1 NState=    1 LETran=      28.

 **********************************************************************

            Population analysis using the SCF Density.

 **********************************************************************

 Orbital symmetries:
       Occupied  (A) (A) (A) (A) (A) (A) (A) (A) (A) (A) (A) (A)
                 (A) (A) (A) (A) (A) (A) (A) (A) (A)
       Virtual   (A) (A) (A) (A) (A) (A) (A) (A) (A) (A) (A) (A)
                 (A) (A) (A) (A) (A) (A) (A) (A) (A) (A) (A) (A)
                 (A) (A) (A) (A) (A) (A) (A) (A) (A) (A) (A) (A)
                 (A) (A) (A) (A) (A) (A) (A) (A) (A) (A) (A) (A)
                 (A) (A) (A) (A) (A) (A) (A) (A) (A) (A) (A) (A)
                 (A) (A) (A) (A) (A) (A) (A) (A) (A) (A) (A) (A)
                 (A) (A) (A) (A) (A) (A) (A) (A) (A) (A) (A) (A)
                 (A) (A) (A) (A) (A) (A) (A) (A) (A) (A) (A) (A)
                 (A) (A) (A)
 The electronic state is 1-A.
 Alpha  occ. eigenvalues --  -10.19111 -10.18789 -10.18507 -10.18015 -10.17799
 Alpha  occ. eigenvalues --  -10.16300  -0.86060  -0.75306  -0.74540  -0.61279
 Alpha  occ. eigenvalues --   -0.59692  -0.52543  -0.45837  -0.44911  -0.41904
 Alpha  occ. eigenvalues --   -0.41512  -0.36507  -0.34749  -0.32517  -0.25257
 Alpha  occ. eigenvalues --   -0.24694
 Alpha virt. eigenvalues --   -0.00101   0.00588   0.09068   0.13557   0.14730
 Alpha virt. eigenvalues --    0.15999   0.17132   0.20637   0.21305   0.29607
 Alpha virt. eigenvalues --    0.30591   0.32296   0.35044   0.45960   0.50656
 Alpha virt. eigenvalues --    0.53375   0.56145   0.56494   0.58825   0.59767
 Alpha virt. eigenvalues --    0.60313   0.61356   0.63043   0.63573   0.64405
 Alpha virt. eigenvalues --    0.66496   0.67399   0.74567   0.78616   0.79561
 Alpha virt. eigenvalues --    0.82374   0.85835   0.88080   0.93252   0.94460
 Alpha virt. eigenvalues --    0.95152   0.96643   1.02004   1.07232   1.09962
 Alpha virt. eigenvalues --    1.10907   1.20790   1.21515   1.29332   1.30921
 Alpha virt. eigenvalues --    1.41806   1.43350   1.44485   1.46242   1.56893
 Alpha virt. eigenvalues --    1.73898   1.77066   1.79039   1.82822   1.88626
 Alpha virt. eigenvalues --    1.97826   1.98665   1.98872   2.01891   2.02619
 Alpha virt. eigenvalues --    2.06422   2.07904   2.13102   2.26751   2.28382
 Alpha virt. eigenvalues --    2.31672   2.35933   2.37541   2.39817   2.42338
 Alpha virt. eigenvalues --    2.44406   2.46179   2.49183   2.51783   2.52738
 Alpha virt. eigenvalues --    2.55619   2.58344   2.59635   2.63772   2.74942
 Alpha virt. eigenvalues --    2.79625   2.84359   2.89308   3.01713   3.05902
 Alpha virt. eigenvalues --    3.16533   3.22138   3.27712   3.41254   3.41649
 Alpha virt. eigenvalues --    3.55996   3.77961   4.07300   4.15516   4.16296
 Alpha virt. eigenvalues --    4.18777   4.45076   4.47839   4.85536
          Condensed to atoms (all electrons):
               1          2          3          4          5          6
     1  C    4.836779   0.537893  -0.036619  -0.044914  -0.026936   0.561660
     2  C    0.537893   4.835749   0.545845  -0.035923  -0.050083  -0.045890
     3  C   -0.036619   0.545845   4.794109   0.564273  -0.038656  -0.040809
     4  C   -0.044914  -0.035923   0.564273   4.805128   0.529770  -0.042369
     5  C   -0.026936  -0.050083  -0.038656   0.529770   4.847836   0.569979
     6  C    0.561660  -0.045890  -0.040809  -0.042369   0.569979   4.698511
     7  H    0.360587  -0.042138   0.004367   0.000705   0.006791  -0.041352
     8  H   -0.052347   0.009695   0.000792   0.006961  -0.059171   0.383064
     9  H    0.005217   0.000761   0.005279  -0.043802   0.354035  -0.040659
    10  H    0.000656   0.006332  -0.043391   0.376461  -0.043649   0.004206
    11  H    0.005801  -0.046292   0.367835  -0.050913   0.008736   0.000916
    12  H   -0.040256   0.365800  -0.038856   0.003881   0.000537   0.004443
               7          8          9         10         11         12
     1  C    0.360587  -0.052347   0.005217   0.000656   0.005801  -0.040256
     2  C   -0.042138   0.009695   0.000761   0.006332  -0.046292   0.365800
     3  C    0.004367   0.000792   0.005279  -0.043391   0.367835  -0.038856
     4  C    0.000705   0.006961  -0.043802   0.376461  -0.050913   0.003881
     5  C    0.006791  -0.059171   0.354035  -0.043649   0.008736   0.000537
     6  C   -0.041352   0.383064  -0.040659   0.004206   0.000916   0.004443
     7  H    0.653459  -0.013895  -0.000197   0.000020  -0.000190  -0.004525
     8  H   -0.013895   0.674986  -0.007822  -0.000275   0.000020  -0.000339
     9  H   -0.000197  -0.007822   0.662883  -0.004720  -0.000317   0.000018
    10  H    0.000020  -0.000275  -0.004720   0.633409  -0.013835  -0.000183
    11  H   -0.000190   0.000020  -0.000317  -0.013835   0.659481  -0.005288
    12  H   -0.004525  -0.000339   0.000018  -0.000183  -0.005288   0.624220
 Mulliken charges:
               1
     1  C   -0.107522
     2  C   -0.081749
     3  C   -0.084171
     4  C   -0.069257
     5  C   -0.099190
     6  C   -0.011699
     7  H    0.076367
     8  H    0.058332
     9  H    0.069324
    10  H    0.084970
    11  H    0.074047
    12  H    0.090548
 Sum of Mulliken charges =  -0.00000
 Mulliken charges with hydrogens summed into heavy atoms:
               1
     1  C   -0.031155
     2  C    0.008799
     3  C   -0.010124
     4  C    0.015713
     5  C   -0.029865
     6  C    0.046633
 Electronic spatial extent (au):  <R**2>=            445.1278
 Charge=             -0.0000 electrons
 Dipole moment (field-independent basis, Debye):
    X=              0.0257    Y=              0.0632    Z=             -0.0779  Tot=              0.1035
 Quadrupole moment (field-independent basis, Debye-Ang):
   XX=            -32.0436   YY=            -31.6575   ZZ=            -38.0167
   XY=             -0.7278   XZ=              0.2214   YZ=              0.7767
 Traceless Quadrupole moment (field-independent basis, Debye-Ang):
   XX=              1.8624   YY=              2.2484   ZZ=             -4.1108
   XY=             -0.7278   XZ=              0.2214   YZ=              0.7767
 Octapole moment (field-independent basis, Debye-Ang**2):
  XXX=              0.4227  YYY=             -0.3488  ZZZ=             -0.1509  XYY=             -0.1983
  XXY=              1.1513  XXZ=              0.0924  XZZ=             -0.0767  YZZ=             -0.2708
  YYZ=             -0.7254  XYZ=              0.2860
 Hexadecapole moment (field-independent basis, Debye-Ang**3):
 XXXX=           -277.1749 YYYY=           -258.2026 ZZZZ=            -40.0264 XXXY=             -0.0697
 XXXZ=              1.7491 YYYX=             -6.2323 YYYZ=              3.1718 ZZZX=              0.1481
 ZZZY=              0.8986 XXYY=            -86.1285 XXZZ=            -60.1636 YYZZ=            -56.1104
 XXYZ=              2.7336 YYXZ=              0.2865 ZZXY=             -0.4092
 N-N= 2.067838525910D+02 E-N=-9.512683120137D+02  KE= 2.305138005003D+02
 1\1\GINC-DESKTOP-PRN5QE3\SP\RB3LYP TD-FC\6-31G(d,p)\C6H6\SHOHEI\10-Nov
 -2023\0\\# TD=(NStates=1) B3LYP/6-31G(d,p)\\ABSSPCT\\0,1\C,0,-0.243953
 2048,1.3399538956,-0.039441742\C,0,1.0719834859,0.9397892418,0.0011242
 699\C,0,1.2579689172,-0.4414028118,0.0422004347\C,0,0.2315946149,-1.37
 76311633,0.0235167094\C,0,-1.0507816175,-0.8857209316,-0.0849331562\C,
 0,-1.2713499051,0.4267280504,0.0499872971\H,0,-0.5677202679,2.41140549
 ,0.1083119254\H,0,-2.0859735045,0.8535374627,0.1962428153\H,0,-1.92462
 40695,-1.6390560958,0.1102911145\H,0,0.5567208245,-2.3492855261,-0.060
 4910067\H,0,2.1797201232,-0.9453794897,0.0071229721\H,0,1.9108743672,1
 .6527927118,-0.1994141787\\Version=EM64L-G16RevB.01\State=1-A\HF=-232.
 2033751\RMSD=6.437e-09\PG=C01 [X(C6H6)]\\@


 IT IS NOT EASY TO DESCRIBE
     THE SEA WITH THE MOUTH

                   -- KOKYU
 Job cpu time:       0 days  0 hours  3 minutes 11.5 seconds.
 Elapsed time:       0 days  0 hours  0 minutes 48.4 seconds.
 File lengths (MBytes):  RWF=    116 Int=      0 D2E=      0 Chk=      3 Scr=      1
 Normal termination of Gaussian 16 at Fri Nov 10 19:28:04 2023.
