 Entering Gaussian System, Link 0=g16
 Input=Geometry-74-.com
 Output=Geometry-74-.log
 Initial command:
 /home/shohei/gaussian/g16/l1.exe "/home/shohei/gaussian/scratch/Gau-30162.inp" -scrdir="/home/shohei/gaussian/scratch/"
 Entering Link 1 = /home/shohei/gaussian/g16/l1.exe PID=     30164.
  
 Copyright (c) 1988-2017, Gaussian, Inc.  All Rights Reserved.
  
 This is part of the Gaussian(R) 16 program.  It is based on
 the Gaussian(R) 09 system (copyright 2009, Gaussian, Inc.),
 the Gaussian(R) 03 system (copyright 2003, Gaussian, Inc.),
 the Gaussian(R) 98 system (copyright 1998, Gaussian, Inc.),
 the Gaussian(R) 94 system (copyright 1995, Gaussian, Inc.),
 the Gaussian 92(TM) system (copyright 1992, Gaussian, Inc.),
 the Gaussian 90(TM) system (copyright 1990, Gaussian, Inc.),
 the Gaussian 88(TM) system (copyright 1988, Gaussian, Inc.),
 the Gaussian 86(TM) system (copyright 1986, Carnegie Mellon
 University), and the Gaussian 82(TM) system (copyright 1983,
 Carnegie Mellon University). Gaussian is a federally registered
 trademark of Gaussian, Inc.
  
 This software contains proprietary and confidential information,
 including trade secrets, belonging to Gaussian, Inc.
  
 This software is provided under written license and may be
 used, copied, transmitted, or stored only in accord with that
 written license.
  
 The following legend is applicable only to US Government
 contracts under FAR:
  
                    RESTRICTED RIGHTS LEGEND
  
 Use, reproduction and disclosure by the US Government is
 subject to restrictions as set forth in subparagraphs (a)
 and (c) of the Commercial Computer Software - Restricted
 Rights clause in FAR 52.227-19.
  
 Gaussian, Inc.
 340 Quinnipiac St., Bldg. 40, Wallingford CT 06492
  
  
 ---------------------------------------------------------------
 Warning -- This program may not be used in any manner that
 competes with the business of Gaussian, Inc. or will provide
 assistance to any competitor of Gaussian, Inc.  The licensee
 of this program is prohibited from giving any competitor of
 Gaussian, Inc. access to this program.  By using this program,
 the user acknowledges that Gaussian, Inc. is engaged in the
 business of creating and licensing software in the field of
 computational chemistry and represents and warrants to the
 licensee that it is not a competitor of Gaussian, Inc. and that
 it will not use this program in any manner prohibited above.
 ---------------------------------------------------------------
  

 Cite this work as:
 Gaussian 16, Revision B.01,
 M. J. Frisch, G. W. Trucks, H. B. Schlegel, G. E. Scuseria, 
 M. A. Robb, J. R. Cheeseman, G. Scalmani, V. Barone, 
 G. A. Petersson, H. Nakatsuji, X. Li, M. Caricato, A. V. Marenich, 
 J. Bloino, B. G. Janesko, R. Gomperts, B. Mennucci, H. P. Hratchian, 
 J. V. Ortiz, A. F. Izmaylov, J. L. Sonnenberg, D. Williams-Young, 
 F. Ding, F. Lipparini, F. Egidi, J. Goings, B. Peng, A. Petrone, 
 T. Henderson, D. Ranasinghe, V. G. Zakrzewski, J. Gao, N. Rega, 
 G. Zheng, W. Liang, M. Hada, M. Ehara, K. Toyota, R. Fukuda, 
 J. Hasegawa, M. Ishida, T. Nakajima, Y. Honda, O. Kitao, H. Nakai, 
 T. Vreven, K. Throssell, J. A. Montgomery, Jr., J. E. Peralta, 
 F. Ogliaro, M. J. Bearpark, J. J. Heyd, E. N. Brothers, K. N. Kudin, 
 V. N. Staroverov, T. A. Keith, R. Kobayashi, J. Normand, 
 K. Raghavachari, A. P. Rendell, J. C. Burant, S. S. Iyengar, 
 J. Tomasi, M. Cossi, J. M. Millam, M. Klene, C. Adamo, R. Cammi, 
 J. W. Ochterski, R. L. Martin, K. Morokuma, O. Farkas, 
 J. B. Foresman, and D. J. Fox, Gaussian, Inc., Wallingford CT, 2016.
 
 ******************************************
 Gaussian 16:  EM64L-G16RevB.01 20-Dec-2017
                10-Nov-2023 
 ******************************************
 %nproc=4
 Will use up to    4 processors via shared memory.
 %Mem=2Gb
 ---------------------------------
 # TD=(NStates=1) B3LYP/6-31G(d,p)
 ---------------------------------
 1/38=1,172=1/1;
 2/12=2,17=6,18=5,40=1/2;
 3/5=1,6=6,7=101,11=9,25=1,30=1,74=-5/1,2,3,8;
 4//1;
 5/5=2,38=5/2;
 8/6=1,10=2,108=1/1;
 9/41=1,42=1,70=2/14;
 6/7=2,8=2,9=2,10=2/1;
 99/5=1,9=1/99;
 -------
 ABSSPCT
 -------
 Symbolic Z-matrix:
 Charge =  0 Multiplicity = 1
 6                    -0.24012   1.38261  -0.00888 
 6                     1.05705   0.89093  -0.05034 
 6                     1.33949  -0.47852   0.03503 
 6                     0.23971  -1.32819  -0.03383 
 6                    -1.06198  -0.93821  -0.01619 
 6                    -1.33252   0.50906   0.08368 
 1                    -0.51346   2.3836    0.0333 
 1                    -2.40921   0.69789  -0.09886 
 1                    -1.81005  -1.71858  -0.19424 
 1                     0.48421  -2.4537   -0.04435 
 1                     2.4064   -0.98521   0.45887 
 1                     1.79469   1.67668  -0.22214 
 
                          Input orientation:                          
 ---------------------------------------------------------------------
 Center     Atomic      Atomic             Coordinates (Angstroms)
 Number     Number       Type             X           Y           Z
 ---------------------------------------------------------------------
      1          6           0       -0.240122    1.382610   -0.008879
      2          6           0        1.057048    0.890932   -0.050341
      3          6           0        1.339486   -0.478516    0.035028
      4          6           0        0.239708   -1.328185   -0.033832
      5          6           0       -1.061979   -0.938205   -0.016191
      6          6           0       -1.332521    0.509063    0.083684
      7          1           0       -0.513462    2.383603    0.033296
      8          1           0       -2.409208    0.697887   -0.098862
      9          1           0       -1.810053   -1.718576   -0.194243
     10          1           0        0.484211   -2.453701   -0.044354
     11          1           0        2.406405   -0.985209    0.458870
     12          1           0        1.794694    1.676683   -0.222145
 ---------------------------------------------------------------------
                    Distance matrix (angstroms):
                    1          2          3          4          5
     1  C    0.000000
     2  C    1.387845   0.000000
     3  C    2.441491   1.400874   0.000000
     4  C    2.753047   2.364910   1.391471   0.000000
     5  C    2.462049   2.799497   2.445602   1.358964   0.000000
     6  C    1.401780   2.423597   2.849087   2.420990   1.475721
     7  H    1.038499   2.168308   3.409567   3.788026   3.367154
     8  H    2.276374   3.471966   3.931229   3.335559   2.121004
     9  H    3.480862   3.879498   3.392626   2.092763   1.095580
    10  H    3.904253   3.393339   2.153869   1.151815   2.165230
    11  H    3.581823   2.366425   1.254869   2.248325   3.501082
    12  H    2.066987   1.091349   2.217710   3.388610   3.878226
                    6          7          8          9         10
     6  C    0.000000
     7  H    2.046288   0.000000
     8  H    1.108257   2.540267   0.000000
     9  H    2.295137   4.308223   2.491461   0.000000
    10  H    3.477768   4.939725   4.278709   2.413819   0.000000
    11  H    4.043906   4.478351   5.131667   4.329308   2.470735
    12  H    3.352065   2.427461   4.318105   4.952046   4.336940
                   11         12
    11  H    0.000000
    12  H    2.814896   0.000000
 Stoichiometry    C6H6
 Framework group  C1[X(C6H6)]
 Deg. of freedom    30
 Full point group                 C1      NOp   1
 Largest Abelian subgroup         C1      NOp   1
 Largest concise Abelian subgroup C1      NOp   1
                         Standard orientation:                         
 ---------------------------------------------------------------------
 Center     Atomic      Atomic             Coordinates (Angstroms)
 Number     Number       Type             X           Y           Z
 ---------------------------------------------------------------------
      1          6           0        1.059214   -0.926495   -0.000909
      2          6           0       -0.257486   -1.361287   -0.058969
      3          6           0       -1.340236   -0.475771    0.018245
      4          6           0       -1.020350    0.877132   -0.041084
      5          6           0        0.236079    1.393870   -0.007156
      6          6           0        1.356531    0.439596    0.101004
      7          1           0        1.901437   -1.532094    0.047985
      8          1           0        2.313753    0.971777   -0.068536
      9          1           0        0.327652    2.471937   -0.179443
     10          1           0       -1.918946    1.597479   -0.058445
     11          1           0       -2.492740   -0.755951    0.428034
     12          1           0       -0.333671   -2.435422   -0.236375
 ---------------------------------------------------------------------
 Rotational constants (GHZ):           5.6688704           5.5662613           2.8229780
 Standard basis: 6-31G(d,p) (6D, 7F)
 There are   120 symmetry adapted cartesian basis functions of A   symmetry.
 There are   120 symmetry adapted basis functions of A   symmetry.
   120 basis functions,   210 primitive gaussians,   120 cartesian basis functions
    21 alpha electrons       21 beta electrons
       nuclear repulsion energy       201.8513212612 Hartrees.
 NAtoms=   12 NActive=   12 NUniq=   12 SFac= 1.00D+00 NAtFMM=   60 NAOKFM=F Big=F
 Integral buffers will be    131072 words long.
 Regular integral format.
 Two-electron integral symmetry is turned on.
 One-electron integrals computed using PRISM.
 NBasis=   120 RedAO= T EigKep=  7.79D-04  NBF=   120
 NBsUse=   120 1.00D-06 EigRej= -1.00D+00 NBFU=   120
 ExpMin= 1.61D-01 ExpMax= 3.05D+03 ExpMxC= 4.57D+02 IAcc=3 IRadAn=         5 AccDes= 0.00D+00
 Harris functional with IExCor=  402 and IRadAn=       5 diagonalized for initial guess.
 HarFok:  IExCor=  402 AccDes= 0.00D+00 IRadAn=         5 IDoV= 1 UseB2=F ITyADJ=14
 ICtDFT=  3500011 ScaDFX=  1.000000  1.000000  1.000000  1.000000
 FoFCou: FMM=F IPFlag=           0 FMFlag=      100000 FMFlg1=           0
         NFxFlg=           0 DoJE=T BraDBF=F KetDBF=T FulRan=T
         wScrn=  0.000000 ICntrl=       500 IOpCl=  0 I1Cent=   200000004 NGrid=           0
         NMat0=    1 NMatS0=      1 NMatT0=    0 NMatD0=    1 NMtDS0=    0 NMtDT0=    0
 Petite list used in FoFCou.
 Keep R1 ints in memory in canonical form, NReq=30147728.
 Requested convergence on RMS density matrix=1.00D-08 within 128 cycles.
 Requested convergence on MAX density matrix=1.00D-06.
 Requested convergence on             energy=1.00D-06.
 No special actions if energy rises.
 Integral accuracy reduced to 1.0D-05 until final iterations.
 Initial convergence to 1.0D-05 achieved.  Increase integral accuracy.
 SCF Done:  E(RB3LYP) =  -232.211669126     A.U. after   13 cycles
            NFock= 13  Conv=0.59D-08     -V/T= 2.0111
 DoSCS=F DFT=T ScalE2(SS,OS)=  1.000000  1.000000
 ExpMin= 1.61D-01 ExpMax= 3.05D+03 ExpMxC= 4.57D+02 IAcc=3 IRadAn=         5 AccDes= 0.00D+00
 HarFok:  IExCor=  205 AccDes= 0.00D+00 IRadAn=         5 IDoV=-2 UseB2=F ITyADJ=14
 ICtDFT= 12500011 ScaDFX=  1.000000  1.000000  1.000000  1.000000
 Range of M.O.s used for correlation:     7   120
 NBasis=   120 NAE=    21 NBE=    21 NFC=     6 NFV=     0
 NROrb=    114 NOA=    15 NOB=    15 NVA=    99 NVB=    99
 Keep R1, R2, and R3 ints in memory in canonical form, NReq=84032236.
 Orbital symmetries:
       Occupied  (A) (A) (A) (A) (A) (A) (A) (A) (A) (A) (A) (A)
                 (A) (A) (A) (A) (A) (A) (A) (A) (A)
       Virtual   (A) (A) (A) (A) (A) (A) (A) (A) (A) (A) (A) (A)
                 (A) (A) (A) (A) (A) (A) (A) (A) (A) (A) (A) (A)
                 (A) (A) (A) (A) (A) (A) (A) (A) (A) (A) (A) (A)
                 (A) (A) (A) (A) (A) (A) (A) (A) (A) (A) (A) (A)
                 (A) (A) (A) (A) (A) (A) (A) (A) (A) (A) (A) (A)
                 (A) (A) (A) (A) (A) (A) (A) (A) (A) (A) (A) (A)
                 (A) (A) (A) (A) (A) (A) (A) (A) (A) (A) (A) (A)
                 (A) (A) (A) (A) (A) (A) (A) (A) (A) (A) (A) (A)
                 (A) (A) (A)
     4 initial guesses have been made.
 Convergence on wavefunction:    0.001000000000000
 Iteration     1 Dimension     4 NMult     0 NNew      4
 CISAX will form     4 AO SS matrices at one time.
 New state      1 was old state      2
 Iteration     2 Dimension     6 NMult     4 NNew      2
 Iteration     3 Dimension     8 NMult     6 NNew      2
 Iteration     4 Dimension    10 NMult     8 NNew      2
 Iteration     5 Dimension    12 NMult    10 NNew      2
 ***********************************************************************
 Excited states from <AA,BB:AA,BB> singles matrix:
 ***********************************************************************
 
 Ground to excited state transition densities written to RWF  633
 Ground to excited state transition electric dipole moments (Au):
       state          X           Y           Z        Dip. S.      Osc.
         1         0.0237      0.1272      0.0069      0.0168      0.0022
 Ground to excited state transition velocity dipole moments (Au):
       state          X           Y           Z        Dip. S.      Osc.
         1        -0.0044     -0.0242     -0.0011      0.0006      0.0021
 Ground to excited state transition magnetic dipole moments (Au):
       state          X           Y           Z
         1         0.0365      0.0245     -0.0318
 Ground to excited state transition velocity quadrupole moments (Au):
       state          XX          YY          ZZ          XY          XZ          YZ
         1        -0.0012     -0.0075      0.0036     -0.0041     -0.0209      0.0232
 <0|del|b> * <b|rxdel|0> + <0|del|b> * <b|delr+rdel|0>
 Rotatory Strengths (R) in cgs (10**-40 erg-esu-cm/Gauss)
       state          XX          YY          ZZ    R(velocity)    E-M Angle
         1        -1.9293     -0.4272     -0.2685     -0.8750      122.61
 1/2[<0|r|b>*<b|rxdel|0> + (<0|rxdel|b>*<b|r|0>)*]
 Rotatory Strengths (R) in cgs (10**-40 erg-esu-cm/Gauss)
       state          XX          YY          ZZ     R(length)
         1        -0.6109     -2.2048      0.1552     -0.8868
  1/2[<0|del|b>*<b|r|0> + (<0|r|b>*<b|del|0>)*] (Au)
       state          X           Y           Z        Dip. S.   Osc.(frdel)
         1        -0.0001     -0.0031     -0.0000      0.0032      0.0021

 Excitation energies and oscillator strengths:
 
 Excited State   1:      Singlet-A      5.2745 eV  235.06 nm  f=0.0022  <S**2>=0.000
      20 -> 22         0.54519
      21 -> 23        -0.44978
 This state for optimization and/or second-order correction.
 Total Energy, E(TD-HF/TD-DFT) =  -232.017834183    
 Copying the excited state density for this state as the 1-particle RhoCI density.
 SavETr:  write IOETrn=   770 NScale= 10 NData=  16 NLR=1 NState=    1 LETran=      28.

 **********************************************************************

            Population analysis using the SCF Density.

 **********************************************************************

 Orbital symmetries:
       Occupied  (A) (A) (A) (A) (A) (A) (A) (A) (A) (A) (A) (A)
                 (A) (A) (A) (A) (A) (A) (A) (A) (A)
       Virtual   (A) (A) (A) (A) (A) (A) (A) (A) (A) (A) (A) (A)
                 (A) (A) (A) (A) (A) (A) (A) (A) (A) (A) (A) (A)
                 (A) (A) (A) (A) (A) (A) (A) (A) (A) (A) (A) (A)
                 (A) (A) (A) (A) (A) (A) (A) (A) (A) (A) (A) (A)
                 (A) (A) (A) (A) (A) (A) (A) (A) (A) (A) (A) (A)
                 (A) (A) (A) (A) (A) (A) (A) (A) (A) (A) (A) (A)
                 (A) (A) (A) (A) (A) (A) (A) (A) (A) (A) (A) (A)
                 (A) (A) (A) (A) (A) (A) (A) (A) (A) (A) (A) (A)
                 (A) (A) (A)
 The electronic state is 1-A.
 Alpha  occ. eigenvalues --  -10.20607 -10.19803 -10.19403 -10.19044 -10.18810
 Alpha  occ. eigenvalues --  -10.18800  -0.84684  -0.74596  -0.73235  -0.60132
 Alpha  occ. eigenvalues --   -0.58935  -0.50977  -0.45893  -0.43260  -0.41526
 Alpha  occ. eigenvalues --   -0.40729  -0.36353  -0.33662  -0.32485  -0.25227
 Alpha  occ. eigenvalues --   -0.23902
 Alpha virt. eigenvalues --   -0.01799   0.00793   0.07043   0.12049   0.13587
 Alpha virt. eigenvalues --    0.15456   0.16553   0.18214   0.18277   0.27740
 Alpha virt. eigenvalues --    0.30025   0.30587   0.33528   0.46118   0.50810
 Alpha virt. eigenvalues --    0.52771   0.54449   0.55570   0.59002   0.59343
 Alpha virt. eigenvalues --    0.59915   0.60770   0.62217   0.62820   0.64167
 Alpha virt. eigenvalues --    0.66371   0.67312   0.73303   0.76517   0.80002
 Alpha virt. eigenvalues --    0.80520   0.83766   0.84184   0.91316   0.91569
 Alpha virt. eigenvalues --    0.94249   0.95591   1.02094   1.05937   1.08294
 Alpha virt. eigenvalues --    1.11312   1.16721   1.18850   1.28420   1.29602
 Alpha virt. eigenvalues --    1.39729   1.42842   1.43943   1.51273   1.55080
 Alpha virt. eigenvalues --    1.63712   1.74002   1.75840   1.78225   1.85690
 Alpha virt. eigenvalues --    1.89992   1.94639   1.98041   1.98676   2.01824
 Alpha virt. eigenvalues --    2.04589   2.06227   2.10418   2.19697   2.22069
 Alpha virt. eigenvalues --    2.29924   2.33669   2.35636   2.36159   2.39859
 Alpha virt. eigenvalues --    2.41294   2.43213   2.45394   2.46525   2.48872
 Alpha virt. eigenvalues --    2.51482   2.53319   2.57718   2.59807   2.67760
 Alpha virt. eigenvalues --    2.69739   2.72899   2.80649   2.90453   3.02135
 Alpha virt. eigenvalues --    3.06544   3.11975   3.19408   3.24558   3.40931
 Alpha virt. eigenvalues --    3.42445   3.51654   3.84025   4.12817   4.16740
 Alpha virt. eigenvalues --    4.17254   4.42630   4.44308   4.78545
          Condensed to atoms (all electrons):
               1          2          3          4          5          6
     1  C    4.796494   0.545037  -0.039462  -0.034436  -0.040569   0.540056
     2  C    0.545037   4.816489   0.533047  -0.039966  -0.040380  -0.028052
     3  C   -0.039462   0.533047   4.874502   0.531577  -0.044326  -0.042035
     4  C   -0.034436  -0.039966   0.531577   4.777092   0.578520  -0.033057
     5  C   -0.040569  -0.040380  -0.044326   0.578520   4.837273   0.504831
     6  C    0.540056  -0.028052  -0.042035  -0.033057   0.504831   4.881627
     7  H    0.379993  -0.040795   0.005053   0.000317   0.004962  -0.050354
     8  H   -0.033009   0.003713   0.000890   0.004422  -0.044110   0.361833
     9  H    0.003698   0.000258   0.005585  -0.039974   0.366976  -0.037543
    10  H    0.000455   0.005272  -0.043662   0.357409  -0.042409   0.005529
    11  H    0.002509  -0.028388   0.347528  -0.033238   0.003890   0.000275
    12  H   -0.047624   0.367868  -0.039670   0.004525   0.000673   0.005641
               7          8          9         10         11         12
     1  C    0.379993  -0.033009   0.003698   0.000455   0.002509  -0.047624
     2  C   -0.040795   0.003713   0.000258   0.005272  -0.028388   0.367868
     3  C    0.005053   0.000890   0.005585  -0.043662   0.347528  -0.039670
     4  C    0.000317   0.004422  -0.039974   0.357409  -0.033238   0.004525
     5  C    0.004962  -0.044110   0.366976  -0.042409   0.003890   0.000673
     6  C   -0.050354   0.361833  -0.037543   0.005529   0.000275   0.005641
     7  H    0.622134  -0.004636  -0.000182   0.000014  -0.000102  -0.007942
     8  H   -0.004636   0.622097  -0.003923  -0.000218   0.000009  -0.000167
     9  H   -0.000182  -0.003923   0.623708  -0.008753  -0.000167   0.000015
    10  H    0.000014  -0.000218  -0.008753   0.661083  -0.007179  -0.000189
    11  H   -0.000102   0.000009  -0.000167  -0.007179   0.630231  -0.003128
    12  H   -0.007942  -0.000167   0.000015  -0.000189  -0.003128   0.631803
 Mulliken charges:
               1
     1  C   -0.073140
     2  C   -0.094103
     3  C   -0.089027
     4  C   -0.073191
     5  C   -0.085331
     6  C   -0.108749
     7  H    0.091539
     8  H    0.093100
     9  H    0.090301
    10  H    0.072648
    11  H    0.087760
    12  H    0.088194
 Sum of Mulliken charges =  -0.00000
 Mulliken charges with hydrogens summed into heavy atoms:
               1
     1  C    0.018398
     2  C   -0.005909
     3  C   -0.001267
     4  C   -0.000544
     5  C    0.004970
     6  C   -0.015649
 Electronic spatial extent (au):  <R**2>=            463.5603
 Charge=             -0.0000 electrons
 Dipole moment (field-independent basis, Debye):
    X=              0.1366    Y=              0.0403    Z=             -0.0599  Tot=              0.1545
 Quadrupole moment (field-independent basis, Debye-Ang):
   XX=            -31.9271   YY=            -31.8551   ZZ=            -38.5473
   XY=             -0.1763   XZ=             -0.8463   YZ=             -0.3533
 Traceless Quadrupole moment (field-independent basis, Debye-Ang):
   XX=              2.1827   YY=              2.2548   ZZ=             -4.4375
   XY=             -0.1763   XZ=             -0.8463   YZ=             -0.3533
 Octapole moment (field-independent basis, Debye-Ang**2):
  XXX=              0.4991  YYY=              0.9074  ZZZ=             -0.1825  XYY=              1.7797
  XXY=              0.1467  XXZ=              1.5360  XZZ=             -0.0358  YZZ=             -0.2909
  YYZ=             -1.8447  XYZ=              0.0924
 Hexadecapole moment (field-independent basis, Debye-Ang**3):
 XXXX=           -279.9008 YYYY=           -272.1979 ZZZZ=            -42.0648 XXXY=             -0.0650
 XXXZ=             -6.7700 YYYX=             -1.9882 YYYZ=             -0.3616 ZZZX=             -0.7011
 ZZZY=             -0.2687 XXYY=            -93.8431 XXZZ=            -61.7941 YYZZ=            -60.4644
 XXYZ=             -2.6748 YYXZ=             -0.4023 ZZXY=             -0.0683
 N-N= 2.018513212612D+02 E-N=-9.407564843376D+02  KE= 2.296588664222D+02
 1\1\GINC-DESKTOP-PRN5QE3\SP\RB3LYP TD-FC\6-31G(d,p)\C6H6\SHOHEI\10-Nov
 -2023\0\\# TD=(NStates=1) B3LYP/6-31G(d,p)\\ABSSPCT\\0,1\C,0,-0.240121
 5814,1.3826098724,-0.0088793459\C,0,1.0570475426,0.8909323569,-0.05034
 09189\C,0,1.3394859609,-0.4785161071,0.0350282523\C,0,0.2397077989,-1.
 3281854261,-0.0338315837\C,0,-1.0619788288,-0.9382052086,-0.0161905389
 \C,0,-1.3325205157,0.5090627393,0.0836836693\H,0,-0.5134623223,2.38360
 26947,0.0332956685\H,0,-2.4092082832,0.6978871872,-0.0988617745\H,0,-1
 .8100534532,-1.7185756416,-0.1942434658\H,0,0.4842106094,-2.453700618,
 -0.0443544671\H,0,2.4064047603,-0.9852089995,0.458870147\H,0,1.7946936
 768,1.6766831321,-0.2221448463\\Version=EM64L-G16RevB.01\State=1-A\HF=
 -232.2116691\RMSD=5.879e-09\PG=C01 [X(C6H6)]\\@


 IT IS BETTER TO THINK YOU ARE HALF DRY THAN TO KNOW YOU
 ARE ALL WET.  -- SNOOPY
 Job cpu time:       0 days  0 hours  3 minutes  6.7 seconds.
 Elapsed time:       0 days  0 hours  0 minutes 47.3 seconds.
 File lengths (MBytes):  RWF=    116 Int=      0 D2E=      0 Chk=      3 Scr=      1
 Normal termination of Gaussian 16 at Fri Nov 10 17:07:49 2023.
