 Entering Gaussian System, Link 0=g16
 Input=Geometry-267-.com
 Output=Geometry-267-.log
 Initial command:
 /home/shohei/gaussian/g16/l1.exe "/home/shohei/gaussian/scratch/Gau-22204.inp" -scrdir="/home/shohei/gaussian/scratch/"
 Entering Link 1 = /home/shohei/gaussian/g16/l1.exe PID=     22206.
  
 Copyright (c) 1988-2017, Gaussian, Inc.  All Rights Reserved.
  
 This is part of the Gaussian(R) 16 program.  It is based on
 the Gaussian(R) 09 system (copyright 2009, Gaussian, Inc.),
 the Gaussian(R) 03 system (copyright 2003, Gaussian, Inc.),
 the Gaussian(R) 98 system (copyright 1998, Gaussian, Inc.),
 the Gaussian(R) 94 system (copyright 1995, Gaussian, Inc.),
 the Gaussian 92(TM) system (copyright 1992, Gaussian, Inc.),
 the Gaussian 90(TM) system (copyright 1990, Gaussian, Inc.),
 the Gaussian 88(TM) system (copyright 1988, Gaussian, Inc.),
 the Gaussian 86(TM) system (copyright 1986, Carnegie Mellon
 University), and the Gaussian 82(TM) system (copyright 1983,
 Carnegie Mellon University). Gaussian is a federally registered
 trademark of Gaussian, Inc.
  
 This software contains proprietary and confidential information,
 including trade secrets, belonging to Gaussian, Inc.
  
 This software is provided under written license and may be
 used, copied, transmitted, or stored only in accord with that
 written license.
  
 The following legend is applicable only to US Government
 contracts under FAR:
  
                    RESTRICTED RIGHTS LEGEND
  
 Use, reproduction and disclosure by the US Government is
 subject to restrictions as set forth in subparagraphs (a)
 and (c) of the Commercial Computer Software - Restricted
 Rights clause in FAR 52.227-19.
  
 Gaussian, Inc.
 340 Quinnipiac St., Bldg. 40, Wallingford CT 06492
  
  
 ---------------------------------------------------------------
 Warning -- This program may not be used in any manner that
 competes with the business of Gaussian, Inc. or will provide
 assistance to any competitor of Gaussian, Inc.  The licensee
 of this program is prohibited from giving any competitor of
 Gaussian, Inc. access to this program.  By using this program,
 the user acknowledges that Gaussian, Inc. is engaged in the
 business of creating and licensing software in the field of
 computational chemistry and represents and warrants to the
 licensee that it is not a competitor of Gaussian, Inc. and that
 it will not use this program in any manner prohibited above.
 ---------------------------------------------------------------
  

 Cite this work as:
 Gaussian 16, Revision B.01,
 M. J. Frisch, G. W. Trucks, H. B. Schlegel, G. E. Scuseria, 
 M. A. Robb, J. R. Cheeseman, G. Scalmani, V. Barone, 
 G. A. Petersson, H. Nakatsuji, X. Li, M. Caricato, A. V. Marenich, 
 J. Bloino, B. G. Janesko, R. Gomperts, B. Mennucci, H. P. Hratchian, 
 J. V. Ortiz, A. F. Izmaylov, J. L. Sonnenberg, D. Williams-Young, 
 F. Ding, F. Lipparini, F. Egidi, J. Goings, B. Peng, A. Petrone, 
 T. Henderson, D. Ranasinghe, V. G. Zakrzewski, J. Gao, N. Rega, 
 G. Zheng, W. Liang, M. Hada, M. Ehara, K. Toyota, R. Fukuda, 
 J. Hasegawa, M. Ishida, T. Nakajima, Y. Honda, O. Kitao, H. Nakai, 
 T. Vreven, K. Throssell, J. A. Montgomery, Jr., J. E. Peralta, 
 F. Ogliaro, M. J. Bearpark, J. J. Heyd, E. N. Brothers, K. N. Kudin, 
 V. N. Staroverov, T. A. Keith, R. Kobayashi, J. Normand, 
 K. Raghavachari, A. P. Rendell, J. C. Burant, S. S. Iyengar, 
 J. Tomasi, M. Cossi, J. M. Millam, M. Klene, C. Adamo, R. Cammi, 
 J. W. Ochterski, R. L. Martin, K. Morokuma, O. Farkas, 
 J. B. Foresman, and D. J. Fox, Gaussian, Inc., Wallingford CT, 2016.
 
 ******************************************
 Gaussian 16:  EM64L-G16RevB.01 20-Dec-2017
                10-Nov-2023 
 ******************************************
 %nproc=4
 Will use up to    4 processors via shared memory.
 %Mem=2Gb
 ---------------------------------
 # TD=(NStates=1) B3LYP/6-31G(d,p)
 ---------------------------------
 1/38=1,172=1/1;
 2/12=2,17=6,18=5,40=1/2;
 3/5=1,6=6,7=101,11=9,25=1,30=1,74=-5/1,2,3,8;
 4//1;
 5/5=2,38=5/2;
 8/6=1,10=2,108=1/1;
 9/41=1,42=1,70=2/14;
 6/7=2,8=2,9=2,10=2/1;
 99/5=1,9=1/99;
 -------
 ABSSPCT
 -------
 Symbolic Z-matrix:
 Charge =  0 Multiplicity = 1
 6                    -0.26456   1.39562   0.01008 
 6                     1.08565   0.89935   0.02872 
 6                     1.29979  -0.42882  -0.04412 
 6                     0.18015  -1.39585   0.05568 
 6                    -1.04016  -0.90399  -0.01285 
 6                    -1.28382   0.44122   0.02992 
 1                    -0.39347   2.54448  -0.28678 
 1                    -2.32718   0.73313  -0.08274 
 1                    -1.76998  -1.68592  -0.27463 
 1                     0.7107   -2.37514  -0.17428 
 1                     2.19426  -0.86211  -0.00979 
 1                     1.84986   1.54374  -0.13984 
 
                          Input orientation:                          
 ---------------------------------------------------------------------
 Center     Atomic      Atomic             Coordinates (Angstroms)
 Number     Number       Type             X           Y           Z
 ---------------------------------------------------------------------
      1          6           0       -0.264557    1.395616    0.010075
      2          6           0        1.085650    0.899352    0.028719
      3          6           0        1.299787   -0.428816   -0.044124
      4          6           0        0.180152   -1.395855    0.055678
      5          6           0       -1.040163   -0.903993   -0.012850
      6          6           0       -1.283815    0.441219    0.029922
      7          1           0       -0.393471    2.544476   -0.286781
      8          1           0       -2.327178    0.733135   -0.082740
      9          1           0       -1.769983   -1.685923   -0.274633
     10          1           0        0.710697   -2.375145   -0.174280
     11          1           0        2.194256   -0.862109   -0.009785
     12          1           0        1.849863    1.543736   -0.139839
 ---------------------------------------------------------------------
                    Distance matrix (angstroms):
                    1          2          3          4          5
     1  C    0.000000
     2  C    1.438640   0.000000
     3  C    2.403885   1.347290   0.000000
     4  C    2.827040   2.467515   1.482804   0.000000
     5  C    2.426993   2.787986   2.387915   1.317494   0.000000
     6  C    1.396480   2.413349   2.727168   2.349192   1.367769
     7  H    1.193575   2.234675   3.430229   3.996564   3.519259
     8  H    2.168387   3.418691   3.808739   3.292181   2.083621
     9  H    3.441403   3.863977   3.325199   1.999068   1.101174
    10  H    3.899198   3.302140   2.037686   1.137263   2.292566
    11  H    3.338185   2.081642   0.994483   2.084656   3.234692
    12  H    2.124897   1.013737   2.050050   3.386349   3.789427
                    6          7          8          9         10
     6  C    0.000000
     7  H    2.305797   0.000000
     8  H    1.089271   2.657406   0.000000
     9  H    2.203145   4.448731   2.489805   0.000000
    10  H    3.457121   5.043264   4.347236   2.576601   0.000000
    11  H    3.714461   4.286943   4.795153   4.057587   2.125391
    12  H    3.326305   2.460817   4.255350   4.853057   4.081239
                   11         12
    11  H    0.000000
    12  H    2.433847   0.000000
 Stoichiometry    C6H6
 Framework group  C1[X(C6H6)]
 Deg. of freedom    30
 Full point group                 C1      NOp   1
 Largest Abelian subgroup         C1      NOp   1
 Largest concise Abelian subgroup C1      NOp   1
                         Standard orientation:                         
 ---------------------------------------------------------------------
 Center     Atomic      Atomic             Coordinates (Angstroms)
 Number     Number       Type             X           Y           Z
 ---------------------------------------------------------------------
      1          6           0       -1.299761    0.577565   -0.026429
      2          6           0       -1.122865   -0.850085   -0.040928
      3          6           0        0.121969   -1.359861    0.034606
      4          6           0        1.317983   -0.489194   -0.066386
      5          6           0        1.115844    0.811092   -0.001675
      6          6           0       -0.138923    1.353565   -0.047240
      7          1           0       -2.389687    0.964675    0.268236
      8          1           0       -0.186539    2.436261    0.062369
      9          1           0        2.042737    1.345132    0.259579
     10          1           0        2.151072   -1.227506    0.166477
     11          1           0        0.340986   -2.329418    0.003183
     12          1           0       -1.924049   -1.447641    0.128467
 ---------------------------------------------------------------------
 Rotational constants (GHZ):           5.8991748           5.5844852           2.8785639
 Standard basis: 6-31G(d,p) (6D, 7F)
 There are   120 symmetry adapted cartesian basis functions of A   symmetry.
 There are   120 symmetry adapted basis functions of A   symmetry.
   120 basis functions,   210 primitive gaussians,   120 cartesian basis functions
    21 alpha electrons       21 beta electrons
       nuclear repulsion energy       204.3471492295 Hartrees.
 NAtoms=   12 NActive=   12 NUniq=   12 SFac= 1.00D+00 NAtFMM=   60 NAOKFM=F Big=F
 Integral buffers will be    131072 words long.
 Regular integral format.
 Two-electron integral symmetry is turned on.
 One-electron integrals computed using PRISM.
 NBasis=   120 RedAO= T EigKep=  8.09D-04  NBF=   120
 NBsUse=   120 1.00D-06 EigRej= -1.00D+00 NBFU=   120
 ExpMin= 1.61D-01 ExpMax= 3.05D+03 ExpMxC= 4.57D+02 IAcc=3 IRadAn=         5 AccDes= 0.00D+00
 Harris functional with IExCor=  402 and IRadAn=       5 diagonalized for initial guess.
 HarFok:  IExCor=  402 AccDes= 0.00D+00 IRadAn=         5 IDoV= 1 UseB2=F ITyADJ=14
 ICtDFT=  3500011 ScaDFX=  1.000000  1.000000  1.000000  1.000000
 FoFCou: FMM=F IPFlag=           0 FMFlag=      100000 FMFlg1=           0
         NFxFlg=           0 DoJE=T BraDBF=F KetDBF=T FulRan=T
         wScrn=  0.000000 ICntrl=       500 IOpCl=  0 I1Cent=   200000004 NGrid=           0
         NMat0=    1 NMatS0=      1 NMatT0=    0 NMatD0=    1 NMtDS0=    0 NMtDT0=    0
 Petite list used in FoFCou.
 Keep R1 ints in memory in canonical form, NReq=30147728.
 Requested convergence on RMS density matrix=1.00D-08 within 128 cycles.
 Requested convergence on MAX density matrix=1.00D-06.
 Requested convergence on             energy=1.00D-06.
 No special actions if energy rises.
 Integral accuracy reduced to 1.0D-05 until final iterations.
 Initial convergence to 1.0D-05 achieved.  Increase integral accuracy.
 SCF Done:  E(RB3LYP) =  -232.199399011     A.U. after   13 cycles
            NFock= 13  Conv=0.86D-08     -V/T= 2.0089
 DoSCS=F DFT=T ScalE2(SS,OS)=  1.000000  1.000000
 ExpMin= 1.61D-01 ExpMax= 3.05D+03 ExpMxC= 4.57D+02 IAcc=3 IRadAn=         5 AccDes= 0.00D+00
 HarFok:  IExCor=  205 AccDes= 0.00D+00 IRadAn=         5 IDoV=-2 UseB2=F ITyADJ=14
 ICtDFT= 12500011 ScaDFX=  1.000000  1.000000  1.000000  1.000000
 Range of M.O.s used for correlation:     7   120
 NBasis=   120 NAE=    21 NBE=    21 NFC=     6 NFV=     0
 NROrb=    114 NOA=    15 NOB=    15 NVA=    99 NVB=    99
 Keep R1, R2, and R3 ints in memory in canonical form, NReq=84032236.
 Orbital symmetries:
       Occupied  (A) (A) (A) (A) (A) (A) (A) (A) (A) (A) (A) (A)
                 (A) (A) (A) (A) (A) (A) (A) (A) (A)
       Virtual   (A) (A) (A) (A) (A) (A) (A) (A) (A) (A) (A) (A)
                 (A) (A) (A) (A) (A) (A) (A) (A) (A) (A) (A) (A)
                 (A) (A) (A) (A) (A) (A) (A) (A) (A) (A) (A) (A)
                 (A) (A) (A) (A) (A) (A) (A) (A) (A) (A) (A) (A)
                 (A) (A) (A) (A) (A) (A) (A) (A) (A) (A) (A) (A)
                 (A) (A) (A) (A) (A) (A) (A) (A) (A) (A) (A) (A)
                 (A) (A) (A) (A) (A) (A) (A) (A) (A) (A) (A) (A)
                 (A) (A) (A) (A) (A) (A) (A) (A) (A) (A) (A) (A)
                 (A) (A) (A)
     4 initial guesses have been made.
 Convergence on wavefunction:    0.001000000000000
 Iteration     1 Dimension     4 NMult     0 NNew      4
 CISAX will form     4 AO SS matrices at one time.
 New state      1 was old state      2
 Iteration     2 Dimension     6 NMult     4 NNew      2
 Iteration     3 Dimension     8 NMult     6 NNew      2
 Iteration     4 Dimension    10 NMult     8 NNew      2
 Iteration     5 Dimension    12 NMult    10 NNew      2
 ***********************************************************************
 Excited states from <AA,BB:AA,BB> singles matrix:
 ***********************************************************************
 
 Ground to excited state transition densities written to RWF  633
 Ground to excited state transition electric dipole moments (Au):
       state          X           Y           Z        Dip. S.      Osc.
         1        -0.0438     -0.0724      0.0089      0.0072      0.0010
 Ground to excited state transition velocity dipole moments (Au):
       state          X           Y           Z        Dip. S.      Osc.
         1         0.0097      0.0145     -0.0018      0.0003      0.0010
 Ground to excited state transition magnetic dipole moments (Au):
       state          X           Y           Z
         1        -0.0231      0.0585     -0.0884
 Ground to excited state transition velocity quadrupole moments (Au):
       state          XX          YY          ZZ          XY          XZ          YZ
         1        -0.0080     -0.0179      0.0107      0.0023     -0.0119      0.0040
 <0|del|b> * <b|rxdel|0> + <0|del|b> * <b|delr+rdel|0>
 Rotatory Strengths (R) in cgs (10**-40 erg-esu-cm/Gauss)
       state          XX          YY          ZZ    R(velocity)    E-M Angle
         1         2.0560     -0.0405      0.7213      0.9123       65.75
 1/2[<0|r|b>*<b|rxdel|0> + (<0|rxdel|b>*<b|r|0>)*]
 Rotatory Strengths (R) in cgs (10**-40 erg-esu-cm/Gauss)
       state          XX          YY          ZZ     R(length)
         1        -0.7165      2.9971      0.5556      0.9454
  1/2[<0|del|b>*<b|r|0> + (<0|r|b>*<b|del|0>)*] (Au)
       state          X           Y           Z        Dip. S.   Osc.(frdel)
         1        -0.0004     -0.0010     -0.0000      0.0015      0.0010

 Excitation energies and oscillator strengths:
 
 Excited State   1:      Singlet-A      5.4887 eV  225.89 nm  f=0.0010  <S**2>=0.000
      20 -> 22         0.51814
      21 -> 23         0.46774
 This state for optimization and/or second-order correction.
 Total Energy, E(TD-HF/TD-DFT) =  -231.997691344    
 Copying the excited state density for this state as the 1-particle RhoCI density.
 SavETr:  write IOETrn=   770 NScale= 10 NData=  16 NLR=1 NState=    1 LETran=      28.

 **********************************************************************

            Population analysis using the SCF Density.

 **********************************************************************

 Orbital symmetries:
       Occupied  (A) (A) (A) (A) (A) (A) (A) (A) (A) (A) (A) (A)
                 (A) (A) (A) (A) (A) (A) (A) (A) (A)
       Virtual   (A) (A) (A) (A) (A) (A) (A) (A) (A) (A) (A) (A)
                 (A) (A) (A) (A) (A) (A) (A) (A) (A) (A) (A) (A)
                 (A) (A) (A) (A) (A) (A) (A) (A) (A) (A) (A) (A)
                 (A) (A) (A) (A) (A) (A) (A) (A) (A) (A) (A) (A)
                 (A) (A) (A) (A) (A) (A) (A) (A) (A) (A) (A) (A)
                 (A) (A) (A) (A) (A) (A) (A) (A) (A) (A) (A) (A)
                 (A) (A) (A) (A) (A) (A) (A) (A) (A) (A) (A) (A)
                 (A) (A) (A) (A) (A) (A) (A) (A) (A) (A) (A) (A)
                 (A) (A) (A)
 The electronic state is 1-A.
 Alpha  occ. eigenvalues --  -10.20387 -10.18985 -10.18737 -10.18347 -10.17812
 Alpha  occ. eigenvalues --  -10.17469  -0.85254  -0.75362  -0.73543  -0.60564
 Alpha  occ. eigenvalues --   -0.59635  -0.51900  -0.46034  -0.44422  -0.42534
 Alpha  occ. eigenvalues --   -0.40355  -0.36703  -0.34007  -0.31552  -0.25572
 Alpha  occ. eigenvalues --   -0.24131
 Alpha virt. eigenvalues --   -0.01029   0.00942   0.08338   0.11712   0.14433
 Alpha virt. eigenvalues --    0.15583   0.18112   0.18148   0.21478   0.26687
 Alpha virt. eigenvalues --    0.30426   0.31598   0.35088   0.46157   0.51957
 Alpha virt. eigenvalues --    0.52218   0.54348   0.55910   0.58217   0.59036
 Alpha virt. eigenvalues --    0.60284   0.61214   0.61557   0.64919   0.65759
 Alpha virt. eigenvalues --    0.66629   0.66885   0.73290   0.77972   0.80897
 Alpha virt. eigenvalues --    0.82587   0.84544   0.86510   0.92037   0.93977
 Alpha virt. eigenvalues --    0.94551   0.96890   1.03987   1.06729   1.08445
 Alpha virt. eigenvalues --    1.12358   1.12945   1.22487   1.24704   1.31330
 Alpha virt. eigenvalues --    1.38075   1.42201   1.45473   1.52457   1.55281
 Alpha virt. eigenvalues --    1.69206   1.72013   1.78016   1.82573   1.87642
 Alpha virt. eigenvalues --    1.94381   1.95612   1.99067   2.01171   2.03606
 Alpha virt. eigenvalues --    2.05193   2.08866   2.10079   2.19013   2.26674
 Alpha virt. eigenvalues --    2.29045   2.33120   2.36033   2.38610   2.40663
 Alpha virt. eigenvalues --    2.43808   2.45055   2.46484   2.48008   2.50965
 Alpha virt. eigenvalues --    2.56169   2.56703   2.60610   2.66473   2.71699
 Alpha virt. eigenvalues --    2.77475   2.78062   2.81339   2.94066   3.07430
 Alpha virt. eigenvalues --    3.10855   3.19532   3.24357   3.34999   3.46378
 Alpha virt. eigenvalues --    3.54139   3.65023   3.94338   4.13978   4.16282
 Alpha virt. eigenvalues --    4.20694   4.45538   4.45979   4.81826
          Condensed to atoms (all electrons):
               1          2          3          4          5          6
     1  C    4.881069   0.499005  -0.030693  -0.052268  -0.026437   0.551056
     2  C    0.499005   4.777186   0.596794  -0.023854  -0.044715  -0.037397
     3  C   -0.030693   0.596794   4.829190   0.497980  -0.046485  -0.041696
     4  C   -0.052268  -0.023854   0.497980   4.861056   0.567685  -0.032539
     5  C   -0.026437  -0.044715  -0.046485   0.567685   4.788577   0.536475
     6  C    0.551056  -0.037397  -0.041696  -0.032539   0.536475   4.802255
     7  H    0.357047  -0.039110   0.003924   0.000417   0.003294  -0.030349
     8  H   -0.043026   0.004806   0.000602   0.006067  -0.046638   0.371625
     9  H    0.004412   0.000620   0.006367  -0.052900   0.367986  -0.038825
    10  H    0.000641   0.005622  -0.051442   0.360001  -0.032148   0.003690
    11  H    0.006679  -0.048481   0.369520  -0.049953   0.008528   0.000806
    12  H   -0.047879   0.377545  -0.050742   0.006487   0.000391   0.005422
               7          8          9         10         11         12
     1  C    0.357047  -0.043026   0.004412   0.000641   0.006679  -0.047879
     2  C   -0.039110   0.004806   0.000620   0.005622  -0.048481   0.377545
     3  C    0.003924   0.000602   0.006367  -0.051442   0.369520  -0.050742
     4  C    0.000417   0.006067  -0.052900   0.360001  -0.049953   0.006487
     5  C    0.003294  -0.046638   0.367986  -0.032148   0.008528   0.000391
     6  C   -0.030349   0.371625  -0.038825   0.003690   0.000806   0.005422
     7  H    0.625567  -0.004617  -0.000102   0.000013  -0.000196  -0.005538
     8  H   -0.004617   0.633919  -0.007883  -0.000165   0.000016  -0.000210
     9  H   -0.000102  -0.007883   0.638630  -0.006225  -0.000424   0.000028
    10  H    0.000013  -0.000165  -0.006225   0.640969  -0.009588  -0.000345
    11  H   -0.000196   0.000016  -0.000424  -0.009588   0.656652  -0.008518
    12  H   -0.005538  -0.000210   0.000028  -0.000345  -0.008518   0.644598
 Mulliken charges:
               1
     1  C   -0.099605
     2  C   -0.068022
     3  C   -0.083320
     4  C   -0.088180
     5  C   -0.076513
     6  C   -0.090523
     7  H    0.089648
     8  H    0.085504
     9  H    0.088314
    10  H    0.088978
    11  H    0.074958
    12  H    0.078761
 Sum of Mulliken charges =  -0.00000
 Mulliken charges with hydrogens summed into heavy atoms:
               1
     1  C   -0.009957
     2  C    0.010739
     3  C   -0.008361
     4  C    0.000797
     5  C    0.011801
     6  C   -0.005019
 Electronic spatial extent (au):  <R**2>=            454.0721
 Charge=             -0.0000 electrons
 Dipole moment (field-independent basis, Debye):
    X=             -0.0219    Y=             -0.1767    Z=              0.5333  Tot=              0.5622
 Quadrupole moment (field-independent basis, Debye-Ang):
   XX=            -31.8984   YY=            -31.8598   ZZ=            -38.2087
   XY=             -0.2675   XZ=             -0.0359   YZ=              0.2143
 Traceless Quadrupole moment (field-independent basis, Debye-Ang):
   XX=              2.0906   YY=              2.1292   ZZ=             -4.2198
   XY=             -0.2675   XZ=             -0.0359   YZ=              0.2143
 Octapole moment (field-independent basis, Debye-Ang**2):
  XXX=             -2.3758  YYY=             -1.7671  ZZZ=              0.6478  XYY=              1.4258
  XXY=             -0.9036  XXZ=              3.2759  XZZ=              0.1294  YZZ=             -0.2033
  YYZ=              1.4205  XYZ=             -0.0916
 Hexadecapole moment (field-independent basis, Debye-Ang**3):
 XXXX=           -280.4676 YYYY=           -264.6026 ZZZZ=            -40.7905 XXXY=             -0.1964
 XXXZ=             -0.8154 YYYX=             -1.3933 YYYZ=              1.0273 ZZZX=              0.0066
 ZZZY=              0.2085 XXYY=            -89.8411 XXZZ=            -60.7797 YYZZ=            -58.0594
 XXYZ=              0.9816 YYXZ=              0.1601 ZZXY=              0.5559
 N-N= 2.043471492295D+02 E-N=-9.461320891635D+02  KE= 2.301594920990D+02
 1\1\GINC-DESKTOP-PRN5QE3\SP\RB3LYP TD-FC\6-31G(d,p)\C6H6\SHOHEI\10-Nov
 -2023\0\\# TD=(NStates=1) B3LYP/6-31G(d,p)\\ABSSPCT\\0,1\C,0,-0.264556
 8107,1.3956163772,0.010075305\C,0,1.0856504868,0.8993521455,0.02871856
 94\C,0,1.2997872334,-0.4288156943,-0.0441235926\C,0,0.1801515103,-1.39
 58547022,0.0556779312\C,0,-1.0401630733,-0.9039930862,-0.0128496854\C,
 0,-1.2838151179,0.4412193405,0.0299224083\H,0,-0.3934714927,2.54447567
 93,-0.2867812672\H,0,-2.3271775179,0.7331345819,-0.0827396716\H,0,-1.7
 699834279,-1.6859232227,-0.2746334917\H,0,0.7106967641,-2.3751447389,-
 0.1742800525\H,0,2.1942564814,-0.8621089233,-0.0097850572\H,0,1.849863
 0718,1.5437364248,-0.1398390273\\Version=EM64L-G16RevB.01\State=1-A\HF
 =-232.199399\RMSD=8.621e-09\PG=C01 [X(C6H6)]\\@


 ERWIN WITH HIS PSI CAN DO
 CALCULATIONS QUITE A FEW.
 BUT ONE THING HAS NOT BEEN SEEN
 JUST WHAT DOES PSI REALLY MEAN.
 -- WALTER HUCKEL, TRANS. BY FELIX BLOCH
 Job cpu time:       0 days  0 hours  3 minutes 35.6 seconds.
 Elapsed time:       0 days  0 hours  0 minutes 54.6 seconds.
 File lengths (MBytes):  RWF=    116 Int=      0 D2E=      0 Chk=      3 Scr=      1
 Normal termination of Gaussian 16 at Fri Nov 10 16:16:44 2023.
