 Entering Gaussian System, Link 0=g16
 Input=Geometry-204-.com
 Output=Geometry-204-.log
 Initial command:
 /home/shohei/gaussian/g16/l1.exe "/home/shohei/gaussian/scratch/Gau-8637.inp" -scrdir="/home/shohei/gaussian/scratch/"
 Entering Link 1 = /home/shohei/gaussian/g16/l1.exe PID=      8639.
  
 Copyright (c) 1988-2017, Gaussian, Inc.  All Rights Reserved.
  
 This is part of the Gaussian(R) 16 program.  It is based on
 the Gaussian(R) 09 system (copyright 2009, Gaussian, Inc.),
 the Gaussian(R) 03 system (copyright 2003, Gaussian, Inc.),
 the Gaussian(R) 98 system (copyright 1998, Gaussian, Inc.),
 the Gaussian(R) 94 system (copyright 1995, Gaussian, Inc.),
 the Gaussian 92(TM) system (copyright 1992, Gaussian, Inc.),
 the Gaussian 90(TM) system (copyright 1990, Gaussian, Inc.),
 the Gaussian 88(TM) system (copyright 1988, Gaussian, Inc.),
 the Gaussian 86(TM) system (copyright 1986, Carnegie Mellon
 University), and the Gaussian 82(TM) system (copyright 1983,
 Carnegie Mellon University). Gaussian is a federally registered
 trademark of Gaussian, Inc.
  
 This software contains proprietary and confidential information,
 including trade secrets, belonging to Gaussian, Inc.
  
 This software is provided under written license and may be
 used, copied, transmitted, or stored only in accord with that
 written license.
  
 The following legend is applicable only to US Government
 contracts under FAR:
  
                    RESTRICTED RIGHTS LEGEND
  
 Use, reproduction and disclosure by the US Government is
 subject to restrictions as set forth in subparagraphs (a)
 and (c) of the Commercial Computer Software - Restricted
 Rights clause in FAR 52.227-19.
  
 Gaussian, Inc.
 340 Quinnipiac St., Bldg. 40, Wallingford CT 06492
  
  
 ---------------------------------------------------------------
 Warning -- This program may not be used in any manner that
 competes with the business of Gaussian, Inc. or will provide
 assistance to any competitor of Gaussian, Inc.  The licensee
 of this program is prohibited from giving any competitor of
 Gaussian, Inc. access to this program.  By using this program,
 the user acknowledges that Gaussian, Inc. is engaged in the
 business of creating and licensing software in the field of
 computational chemistry and represents and warrants to the
 licensee that it is not a competitor of Gaussian, Inc. and that
 it will not use this program in any manner prohibited above.
 ---------------------------------------------------------------
  

 Cite this work as:
 Gaussian 16, Revision B.01,
 M. J. Frisch, G. W. Trucks, H. B. Schlegel, G. E. Scuseria, 
 M. A. Robb, J. R. Cheeseman, G. Scalmani, V. Barone, 
 G. A. Petersson, H. Nakatsuji, X. Li, M. Caricato, A. V. Marenich, 
 J. Bloino, B. G. Janesko, R. Gomperts, B. Mennucci, H. P. Hratchian, 
 J. V. Ortiz, A. F. Izmaylov, J. L. Sonnenberg, D. Williams-Young, 
 F. Ding, F. Lipparini, F. Egidi, J. Goings, B. Peng, A. Petrone, 
 T. Henderson, D. Ranasinghe, V. G. Zakrzewski, J. Gao, N. Rega, 
 G. Zheng, W. Liang, M. Hada, M. Ehara, K. Toyota, R. Fukuda, 
 J. Hasegawa, M. Ishida, T. Nakajima, Y. Honda, O. Kitao, H. Nakai, 
 T. Vreven, K. Throssell, J. A. Montgomery, Jr., J. E. Peralta, 
 F. Ogliaro, M. J. Bearpark, J. J. Heyd, E. N. Brothers, K. N. Kudin, 
 V. N. Staroverov, T. A. Keith, R. Kobayashi, J. Normand, 
 K. Raghavachari, A. P. Rendell, J. C. Burant, S. S. Iyengar, 
 J. Tomasi, M. Cossi, J. M. Millam, M. Klene, C. Adamo, R. Cammi, 
 J. W. Ochterski, R. L. Martin, K. Morokuma, O. Farkas, 
 J. B. Foresman, and D. J. Fox, Gaussian, Inc., Wallingford CT, 2016.
 
 ******************************************
 Gaussian 16:  EM64L-G16RevB.01 20-Dec-2017
                10-Nov-2023 
 ******************************************
 %nproc=4
 Will use up to    4 processors via shared memory.
 %Mem=2Gb
 ---------------------------------
 # TD=(NStates=1) B3LYP/6-31G(d,p)
 ---------------------------------
 1/38=1,172=1/1;
 2/12=2,17=6,18=5,40=1/2;
 3/5=1,6=6,7=101,11=9,25=1,30=1,74=-5/1,2,3,8;
 4//1;
 5/5=2,38=5/2;
 8/6=1,10=2,108=1/1;
 9/41=1,42=1,70=2/14;
 6/7=2,8=2,9=2,10=2/1;
 99/5=1,9=1/99;
 -------
 ABSSPCT
 -------
 Symbolic Z-matrix:
 Charge =  0 Multiplicity = 1
 6                    -0.24193   1.33877  -0.05149 
 6                     1.11211   0.98172  -0.04746 
 6                     1.28794  -0.45025   0.10167 
 6                     0.26097  -1.35205  -0.09273 
 6                    -1.1566   -0.92879   0.04228 
 6                    -1.27775   0.41276   0.03847 
 1                    -0.25823   2.35023   0.18458 
 1                    -2.26984   0.85458   0.14232 
 1                    -1.87634  -1.71056  -0.15308 
 1                     0.39004  -2.38306  -0.12546 
 1                     2.31351  -0.81747   0.303 
 1                     1.8751    1.68126  -0.15029 
 
                          Input orientation:                          
 ---------------------------------------------------------------------
 Center     Atomic      Atomic             Coordinates (Angstroms)
 Number     Number       Type             X           Y           Z
 ---------------------------------------------------------------------
      1          6           0       -0.241930    1.338768   -0.051492
      2          6           0        1.112113    0.981717   -0.047457
      3          6           0        1.287937   -0.450245    0.101675
      4          6           0        0.260975   -1.352053   -0.092731
      5          6           0       -1.156596   -0.928794    0.042283
      6          6           0       -1.277748    0.412763    0.038466
      7          1           0       -0.258234    2.350226    0.184583
      8          1           0       -2.269842    0.854582    0.142315
      9          1           0       -1.876341   -1.710564   -0.153076
     10          1           0        0.390041   -2.383058   -0.125456
     11          1           0        2.313510   -0.817467    0.302999
     12          1           0        1.875097    1.681257   -0.150287
 ---------------------------------------------------------------------
                    Distance matrix (angstroms):
                    1          2          3          4          5
     1  C    0.000000
     2  C    1.400334   0.000000
     3  C    2.358924   1.450403   0.000000
     4  C    2.737723   2.484545   1.380471   0.000000
     5  C    2.446884   2.967346   2.491641   1.485558   0.000000
     6  C    1.392299   2.458155   2.707678   2.345092   1.347021
     7  H    1.038771   1.950516   3.200025   3.748780   3.402833
     8  H    2.093901   3.389660   3.789725   3.365934   2.104697
     9  H    3.461220   4.023728   3.415546   2.168016   1.080446
    10  H    3.775824   3.442264   2.143262   1.039568   2.129579
    11  H    3.362333   2.191628   1.107783   2.157611   3.481666
    12  H    2.146827   1.040229   2.225207   3.436520   4.005073
                    6          7          8          9         10
     6  C    0.000000
     7  H    2.194202   0.000000
     8  H    1.090980   2.507051   0.000000
     9  H    2.214389   4.384324   2.611909   0.000000
    10  H    3.259602   4.787522   4.198688   2.364212   0.000000
    11  H    3.805336   4.081932   4.881462   4.308188   2.516820
    12  H    3.403695   2.260699   4.236688   5.057445   4.327201
                   11         12
    11  H    0.000000
    12  H    2.577071   0.000000
 Stoichiometry    C6H6
 Framework group  C1[X(C6H6)]
 Deg. of freedom    30
 Full point group                 C1      NOp   1
 Largest Abelian subgroup         C1      NOp   1
 Largest concise Abelian subgroup C1      NOp   1
                         Standard orientation:                         
 ---------------------------------------------------------------------
 Center     Atomic      Atomic             Coordinates (Angstroms)
 Number     Number       Type             X           Y           Z
 ---------------------------------------------------------------------
      1          6           0       -0.736207   -1.144487   -0.061041
      2          6           0       -1.481338    0.041135   -0.057339
      3          6           0       -0.632368    1.206748    0.098427
      4          6           0        0.734519    1.164463   -0.090072
      5          6           0        1.480219   -0.113253    0.045050
      6          6           0        0.652425   -1.175855    0.034950
      7          1           0       -1.416176   -1.894970    0.170180
      8          1           0        1.074819   -2.176437    0.138174
      9          1           0        2.540735   -0.033374   -0.145447
     10          1           0        1.344584    2.005736   -0.118023
     11          1           0       -1.131509    2.174955    0.299963
     12          1           0       -2.515960    0.051589   -0.164696
 ---------------------------------------------------------------------
 Rotational constants (GHZ):           6.0183831           5.3062513           2.8368859
 Standard basis: 6-31G(d,p) (6D, 7F)
 There are   120 symmetry adapted cartesian basis functions of A   symmetry.
 There are   120 symmetry adapted basis functions of A   symmetry.
   120 basis functions,   210 primitive gaussians,   120 cartesian basis functions
    21 alpha electrons       21 beta electrons
       nuclear repulsion energy       202.8851491581 Hartrees.
 NAtoms=   12 NActive=   12 NUniq=   12 SFac= 1.00D+00 NAtFMM=   60 NAOKFM=F Big=F
 Integral buffers will be    131072 words long.
 Regular integral format.
 Two-electron integral symmetry is turned on.
 One-electron integrals computed using PRISM.
 NBasis=   120 RedAO= T EigKep=  9.16D-04  NBF=   120
 NBsUse=   120 1.00D-06 EigRej= -1.00D+00 NBFU=   120
 ExpMin= 1.61D-01 ExpMax= 3.05D+03 ExpMxC= 4.57D+02 IAcc=3 IRadAn=         5 AccDes= 0.00D+00
 Harris functional with IExCor=  402 and IRadAn=       5 diagonalized for initial guess.
 HarFok:  IExCor=  402 AccDes= 0.00D+00 IRadAn=         5 IDoV= 1 UseB2=F ITyADJ=14
 ICtDFT=  3500011 ScaDFX=  1.000000  1.000000  1.000000  1.000000
 FoFCou: FMM=F IPFlag=           0 FMFlag=      100000 FMFlg1=           0
         NFxFlg=           0 DoJE=T BraDBF=F KetDBF=T FulRan=T
         wScrn=  0.000000 ICntrl=       500 IOpCl=  0 I1Cent=   200000004 NGrid=           0
         NMat0=    1 NMatS0=      1 NMatT0=    0 NMatD0=    1 NMtDS0=    0 NMtDT0=    0
 Petite list used in FoFCou.
 Keep R1 ints in memory in canonical form, NReq=30147728.
 Requested convergence on RMS density matrix=1.00D-08 within 128 cycles.
 Requested convergence on MAX density matrix=1.00D-06.
 Requested convergence on             energy=1.00D-06.
 No special actions if energy rises.
 Integral accuracy reduced to 1.0D-05 until final iterations.
 Initial convergence to 1.0D-05 achieved.  Increase integral accuracy.
 SCF Done:  E(RB3LYP) =  -232.213103059     A.U. after   13 cycles
            NFock= 13  Conv=0.91D-08     -V/T= 2.0095
 DoSCS=F DFT=T ScalE2(SS,OS)=  1.000000  1.000000
 ExpMin= 1.61D-01 ExpMax= 3.05D+03 ExpMxC= 4.57D+02 IAcc=3 IRadAn=         5 AccDes= 0.00D+00
 HarFok:  IExCor=  205 AccDes= 0.00D+00 IRadAn=         5 IDoV=-2 UseB2=F ITyADJ=14
 ICtDFT= 12500011 ScaDFX=  1.000000  1.000000  1.000000  1.000000
 Range of M.O.s used for correlation:     7   120
 NBasis=   120 NAE=    21 NBE=    21 NFC=     6 NFV=     0
 NROrb=    114 NOA=    15 NOB=    15 NVA=    99 NVB=    99
 Keep R1, R2, and R3 ints in memory in canonical form, NReq=84032236.
 Orbital symmetries:
       Occupied  (A) (A) (A) (A) (A) (A) (A) (A) (A) (A) (A) (A)
                 (A) (A) (A) (A) (A) (A) (A) (A) (A)
       Virtual   (A) (A) (A) (A) (A) (A) (A) (A) (A) (A) (A) (A)
                 (A) (A) (A) (A) (A) (A) (A) (A) (A) (A) (A) (A)
                 (A) (A) (A) (A) (A) (A) (A) (A) (A) (A) (A) (A)
                 (A) (A) (A) (A) (A) (A) (A) (A) (A) (A) (A) (A)
                 (A) (A) (A) (A) (A) (A) (A) (A) (A) (A) (A) (A)
                 (A) (A) (A) (A) (A) (A) (A) (A) (A) (A) (A) (A)
                 (A) (A) (A) (A) (A) (A) (A) (A) (A) (A) (A) (A)
                 (A) (A) (A) (A) (A) (A) (A) (A) (A) (A) (A) (A)
                 (A) (A) (A)
     4 initial guesses have been made.
 Convergence on wavefunction:    0.001000000000000
 Iteration     1 Dimension     4 NMult     0 NNew      4
 CISAX will form     4 AO SS matrices at one time.
 Iteration     2 Dimension     6 NMult     4 NNew      2
 Iteration     3 Dimension     8 NMult     6 NNew      2
 Iteration     4 Dimension    10 NMult     8 NNew      2
 Iteration     5 Dimension    12 NMult    10 NNew      2
 Iteration     6 Dimension    14 NMult    12 NNew      2
 ***********************************************************************
 Excited states from <AA,BB:AA,BB> singles matrix:
 ***********************************************************************
 
 Ground to excited state transition densities written to RWF  633
 Ground to excited state transition electric dipole moments (Au):
       state          X           Y           Z        Dip. S.      Osc.
         1         0.0161      0.2729     -0.0082      0.0748      0.0094
 Ground to excited state transition velocity dipole moments (Au):
       state          X           Y           Z        Dip. S.      Osc.
         1        -0.0051     -0.0526      0.0003      0.0028      0.0098
 Ground to excited state transition magnetic dipole moments (Au):
       state          X           Y           Z
         1         0.0232     -0.0240      0.0042
 Ground to excited state transition velocity quadrupole moments (Au):
       state          XX          YY          ZZ          XY          XZ          YZ
         1        -0.0018     -0.0212      0.0124     -0.0171     -0.0123     -0.0041
 <0|del|b> * <b|rxdel|0> + <0|del|b> * <b|delr+rdel|0>
 Rotatory Strengths (R) in cgs (10**-40 erg-esu-cm/Gauss)
       state          XX          YY          ZZ    R(velocity)    E-M Angle
         1         1.1405     -0.1695      3.3020      1.4244       49.99
 1/2[<0|r|b>*<b|rxdel|0> + (<0|rxdel|b>*<b|r|0>)*]
 Rotatory Strengths (R) in cgs (10**-40 erg-esu-cm/Gauss)
       state          XX          YY          ZZ     R(length)
         1        -0.2641      4.6220      0.0240      1.4606
  1/2[<0|del|b>*<b|r|0> + (<0|r|b>*<b|del|0>)*] (Au)
       state          X           Y           Z        Dip. S.   Osc.(frdel)
         1        -0.0001     -0.0143     -0.0000      0.0144      0.0096

 Excitation energies and oscillator strengths:
 
 Excited State   1:      Singlet-A      5.1430 eV  241.07 nm  f=0.0094  <S**2>=0.000
      20 -> 22        -0.30773
      20 -> 23        -0.28736
      21 -> 22         0.49527
      21 -> 23        -0.27520
 This state for optimization and/or second-order correction.
 Total Energy, E(TD-HF/TD-DFT) =  -232.024102144    
 Copying the excited state density for this state as the 1-particle RhoCI density.
 SavETr:  write IOETrn=   770 NScale= 10 NData=  16 NLR=1 NState=    1 LETran=      28.

 **********************************************************************

            Population analysis using the SCF Density.

 **********************************************************************

 Orbital symmetries:
       Occupied  (A) (A) (A) (A) (A) (A) (A) (A) (A) (A) (A) (A)
                 (A) (A) (A) (A) (A) (A) (A) (A) (A)
       Virtual   (A) (A) (A) (A) (A) (A) (A) (A) (A) (A) (A) (A)
                 (A) (A) (A) (A) (A) (A) (A) (A) (A) (A) (A) (A)
                 (A) (A) (A) (A) (A) (A) (A) (A) (A) (A) (A) (A)
                 (A) (A) (A) (A) (A) (A) (A) (A) (A) (A) (A) (A)
                 (A) (A) (A) (A) (A) (A) (A) (A) (A) (A) (A) (A)
                 (A) (A) (A) (A) (A) (A) (A) (A) (A) (A) (A) (A)
                 (A) (A) (A) (A) (A) (A) (A) (A) (A) (A) (A) (A)
                 (A) (A) (A) (A) (A) (A) (A) (A) (A) (A) (A) (A)
                 (A) (A) (A)
 The electronic state is 1-A.
 Alpha  occ. eigenvalues --  -10.19267 -10.19202 -10.19077 -10.18685 -10.18488
 Alpha  occ. eigenvalues --  -10.18033  -0.84448  -0.74517  -0.73567  -0.60323
 Alpha  occ. eigenvalues --   -0.59636  -0.51640  -0.47229  -0.45052  -0.41638
 Alpha  occ. eigenvalues --   -0.39835  -0.37336  -0.34586  -0.31244  -0.24746
 Alpha  occ. eigenvalues --   -0.23774
 Alpha virt. eigenvalues --   -0.01402   0.00439   0.09866   0.13210   0.15083
 Alpha virt. eigenvalues --    0.15654   0.17139   0.19124   0.19799   0.26861
 Alpha virt. eigenvalues --    0.29376   0.30673   0.34005   0.47017   0.49648
 Alpha virt. eigenvalues --    0.52774   0.53482   0.54146   0.58462   0.59111
 Alpha virt. eigenvalues --    0.60227   0.60820   0.61837   0.63499   0.65589
 Alpha virt. eigenvalues --    0.66424   0.67474   0.73943   0.79851   0.82596
 Alpha virt. eigenvalues --    0.82745   0.84700   0.86727   0.91407   0.92875
 Alpha virt. eigenvalues --    0.93422   0.96474   1.02486   1.06465   1.08018
 Alpha virt. eigenvalues --    1.11280   1.12770   1.17717   1.30340   1.32549
 Alpha virt. eigenvalues --    1.36961   1.42003   1.42587   1.47186   1.58632
 Alpha virt. eigenvalues --    1.71903   1.73249   1.79456   1.83130   1.87655
 Alpha virt. eigenvalues --    1.92484   1.92866   1.95580   1.98940   2.00845
 Alpha virt. eigenvalues --    2.04176   2.06296   2.08424   2.20342   2.24862
 Alpha virt. eigenvalues --    2.31599   2.36720   2.38538   2.40860   2.42714
 Alpha virt. eigenvalues --    2.44802   2.46700   2.47969   2.49523   2.51752
 Alpha virt. eigenvalues --    2.52794   2.55357   2.63121   2.64737   2.69811
 Alpha virt. eigenvalues --    2.74755   2.77587   2.85986   2.94010   3.05807
 Alpha virt. eigenvalues --    3.14712   3.25754   3.28028   3.31087   3.44550
 Alpha virt. eigenvalues --    3.55267   3.64012   3.88225   4.12956   4.17096
 Alpha virt. eigenvalues --    4.19200   4.45091   4.46195   4.78724
          Condensed to atoms (all electrons):
               1          2          3          4          5          6
     1  C    4.827391   0.526001  -0.037306  -0.048674  -0.023502   0.530522
     2  C    0.526001   4.876034   0.503253  -0.022477  -0.039702  -0.028889
     3  C   -0.037306   0.503253   4.828136   0.570905  -0.027681  -0.047880
     4  C   -0.048674  -0.022477   0.570905   4.857482   0.480094  -0.034567
     5  C   -0.023502  -0.039702  -0.027681   0.480094   4.860785   0.553198
     6  C    0.530522  -0.028889  -0.047880  -0.034567   0.553198   4.807160
     7  H    0.375635  -0.058239   0.007228   0.000652   0.005077  -0.038970
     8  H   -0.045902   0.005558   0.000721   0.006214  -0.051929   0.366872
     9  H    0.004007   0.000119   0.004679  -0.043535   0.372927  -0.037706
    10  H    0.000429   0.005064  -0.044643   0.371583  -0.047270   0.006831
    11  H    0.006748  -0.048994   0.365293  -0.046210   0.005015   0.000358
    12  H   -0.039310   0.374758  -0.038676   0.003536   0.000369   0.005228
               7          8          9         10         11         12
     1  C    0.375635  -0.045902   0.004007   0.000429   0.006748  -0.039310
     2  C   -0.058239   0.005558   0.000119   0.005064  -0.048994   0.374758
     3  C    0.007228   0.000721   0.004679  -0.044643   0.365293  -0.038676
     4  C    0.000652   0.006214  -0.043535   0.371583  -0.046210   0.003536
     5  C    0.005077  -0.051929   0.372927  -0.047270   0.005015   0.000369
     6  C   -0.038970   0.366872  -0.037706   0.006831   0.000358   0.005228
     7  H    0.638809  -0.007626  -0.000100   0.000012  -0.000389  -0.007537
     8  H   -0.007626   0.656153  -0.005437  -0.000321   0.000021  -0.000204
     9  H   -0.000100  -0.005437   0.612008  -0.005930  -0.000153   0.000013
    10  H    0.000012  -0.000321  -0.005930   0.639611  -0.007751  -0.000124
    11  H   -0.000389   0.000021  -0.000153  -0.007751   0.653437  -0.004504
    12  H   -0.007537  -0.000204   0.000013  -0.000124  -0.004504   0.609424
 Mulliken charges:
               1
     1  C   -0.076040
     2  C   -0.092485
     3  C   -0.084032
     4  C   -0.095005
     5  C   -0.087382
     6  C   -0.082158
     7  H    0.085448
     8  H    0.075880
     9  H    0.099108
    10  H    0.082509
    11  H    0.077131
    12  H    0.097026
 Sum of Mulliken charges =  -0.00000
 Mulliken charges with hydrogens summed into heavy atoms:
               1
     1  C    0.009408
     2  C    0.004541
     3  C   -0.006901
     4  C   -0.012496
     5  C    0.011726
     6  C   -0.006278
 Electronic spatial extent (au):  <R**2>=            458.8987
 Charge=             -0.0000 electrons
 Dipole moment (field-independent basis, Debye):
    X=             -0.1234    Y=              0.1025    Z=              0.0934  Tot=              0.1856
 Quadrupole moment (field-independent basis, Debye-Ang):
   XX=            -30.2256   YY=            -33.0171   ZZ=            -38.3285
   XY=              0.5784   XZ=             -0.4963   YZ=             -0.2276
 Traceless Quadrupole moment (field-independent basis, Debye-Ang):
   XX=              3.6315   YY=              0.8400   ZZ=             -4.4714
   XY=              0.5784   XZ=             -0.4963   YZ=             -0.2276
 Octapole moment (field-independent basis, Debye-Ang**2):
  XXX=             -1.0042  YYY=              0.7452  ZZZ=              0.1294  XYY=              0.1391
  XXY=              0.4457  XXZ=             -1.1328  XZZ=             -0.2087  YZZ=             -0.0771
  YYZ=              1.5815  XYZ=             -0.3975
 Hexadecapole moment (field-independent basis, Debye-Ang**3):
 XXXX=           -273.2817 YYYY=           -267.2505 ZZZZ=            -41.6629 XXXY=              4.8175
 XXXZ=             -1.4500 YYYX=              0.7596 YYYZ=             -0.8433 ZZZX=             -0.5050
 ZZZY=             -0.2808 XXYY=            -91.8477 XXZZ=            -62.4850 YYZZ=            -57.4078
 XXYZ=             -0.7765 YYXZ=             -2.0676 ZZXY=              0.2206
 N-N= 2.028851491581D+02 E-N=-9.431319260486D+02  KE= 2.300260909270D+02
 1\1\GINC-DESKTOP-PRN5QE3\SP\RB3LYP TD-FC\6-31G(d,p)\C6H6\SHOHEI\10-Nov
 -2023\0\\# TD=(NStates=1) B3LYP/6-31G(d,p)\\ABSSPCT\\0,1\C,0,-0.241930
 2176,1.338767745,-0.0514923165\C,0,1.1121128247,0.9817167378,-0.047456
 9017\C,0,1.2879368923,-0.4502454953,0.1016745867\C,0,0.2609749304,-1.3
 520525071,-0.0927306014\C,0,-1.156595871,-0.9287935059,0.0422829102\C,
 0,-1.2777484675,0.4127631593,0.0384656155\H,0,-0.2582342346,2.35022618
 47,0.1845829897\H,0,-2.2698416328,0.8545815073,0.1423154376\H,0,-1.876
 3414031,-1.7105636331,-0.1530761274\H,0,0.3900405804,-2.3830580086,-0.
 125456297\H,0,2.3135099833,-0.8174665505,0.3029993686\H,0,1.8750971801
 ,1.6812570335,-0.1502866009\\Version=EM64L-G16RevB.01\State=1-A\HF=-23
 2.2131031\RMSD=9.148e-09\PG=C01 [X(C6H6)]\\@


 Where a calculator on the ENIAC is equipped with 18,000
 vacuum tubes and weighs 30 tons, computers inthe future
 may  have only 1,000 vacuum tubes and weigh only 1 1/2 tons.
              ---Popular Mechanics, March 1949
 Job cpu time:       0 days  0 hours  3 minutes 38.2 seconds.
 Elapsed time:       0 days  0 hours  0 minutes 55.2 seconds.
 File lengths (MBytes):  RWF=    116 Int=      0 D2E=      0 Chk=      3 Scr=      1
 Normal termination of Gaussian 16 at Fri Nov 10 18:55:37 2023.
