 Entering Gaussian System, Link 0=g16
 Input=Geometry-443-.com
 Output=Geometry-443-.log
 Initial command:
 /home/shohei/gaussian/g16/l1.exe "/home/shohei/gaussian/scratch/Gau-7917.inp" -scrdir="/home/shohei/gaussian/scratch/"
 Entering Link 1 = /home/shohei/gaussian/g16/l1.exe PID=      7919.
  
 Copyright (c) 1988-2017, Gaussian, Inc.  All Rights Reserved.
  
 This is part of the Gaussian(R) 16 program.  It is based on
 the Gaussian(R) 09 system (copyright 2009, Gaussian, Inc.),
 the Gaussian(R) 03 system (copyright 2003, Gaussian, Inc.),
 the Gaussian(R) 98 system (copyright 1998, Gaussian, Inc.),
 the Gaussian(R) 94 system (copyright 1995, Gaussian, Inc.),
 the Gaussian 92(TM) system (copyright 1992, Gaussian, Inc.),
 the Gaussian 90(TM) system (copyright 1990, Gaussian, Inc.),
 the Gaussian 88(TM) system (copyright 1988, Gaussian, Inc.),
 the Gaussian 86(TM) system (copyright 1986, Carnegie Mellon
 University), and the Gaussian 82(TM) system (copyright 1983,
 Carnegie Mellon University). Gaussian is a federally registered
 trademark of Gaussian, Inc.
  
 This software contains proprietary and confidential information,
 including trade secrets, belonging to Gaussian, Inc.
  
 This software is provided under written license and may be
 used, copied, transmitted, or stored only in accord with that
 written license.
  
 The following legend is applicable only to US Government
 contracts under FAR:
  
                    RESTRICTED RIGHTS LEGEND
  
 Use, reproduction and disclosure by the US Government is
 subject to restrictions as set forth in subparagraphs (a)
 and (c) of the Commercial Computer Software - Restricted
 Rights clause in FAR 52.227-19.
  
 Gaussian, Inc.
 340 Quinnipiac St., Bldg. 40, Wallingford CT 06492
  
  
 ---------------------------------------------------------------
 Warning -- This program may not be used in any manner that
 competes with the business of Gaussian, Inc. or will provide
 assistance to any competitor of Gaussian, Inc.  The licensee
 of this program is prohibited from giving any competitor of
 Gaussian, Inc. access to this program.  By using this program,
 the user acknowledges that Gaussian, Inc. is engaged in the
 business of creating and licensing software in the field of
 computational chemistry and represents and warrants to the
 licensee that it is not a competitor of Gaussian, Inc. and that
 it will not use this program in any manner prohibited above.
 ---------------------------------------------------------------
  

 Cite this work as:
 Gaussian 16, Revision B.01,
 M. J. Frisch, G. W. Trucks, H. B. Schlegel, G. E. Scuseria, 
 M. A. Robb, J. R. Cheeseman, G. Scalmani, V. Barone, 
 G. A. Petersson, H. Nakatsuji, X. Li, M. Caricato, A. V. Marenich, 
 J. Bloino, B. G. Janesko, R. Gomperts, B. Mennucci, H. P. Hratchian, 
 J. V. Ortiz, A. F. Izmaylov, J. L. Sonnenberg, D. Williams-Young, 
 F. Ding, F. Lipparini, F. Egidi, J. Goings, B. Peng, A. Petrone, 
 T. Henderson, D. Ranasinghe, V. G. Zakrzewski, J. Gao, N. Rega, 
 G. Zheng, W. Liang, M. Hada, M. Ehara, K. Toyota, R. Fukuda, 
 J. Hasegawa, M. Ishida, T. Nakajima, Y. Honda, O. Kitao, H. Nakai, 
 T. Vreven, K. Throssell, J. A. Montgomery, Jr., J. E. Peralta, 
 F. Ogliaro, M. J. Bearpark, J. J. Heyd, E. N. Brothers, K. N. Kudin, 
 V. N. Staroverov, T. A. Keith, R. Kobayashi, J. Normand, 
 K. Raghavachari, A. P. Rendell, J. C. Burant, S. S. Iyengar, 
 J. Tomasi, M. Cossi, J. M. Millam, M. Klene, C. Adamo, R. Cammi, 
 J. W. Ochterski, R. L. Martin, K. Morokuma, O. Farkas, 
 J. B. Foresman, and D. J. Fox, Gaussian, Inc., Wallingford CT, 2016.
 
 ******************************************
 Gaussian 16:  EM64L-G16RevB.01 20-Dec-2017
                10-Nov-2023 
 ******************************************
 %nproc=4
 Will use up to    4 processors via shared memory.
 %Mem=2Gb
 ---------------------------------
 # TD=(NStates=1) B3LYP/6-31G(d,p)
 ---------------------------------
 1/38=1,172=1/1;
 2/12=2,17=6,18=5,40=1/2;
 3/5=1,6=6,7=101,11=9,25=1,30=1,74=-5/1,2,3,8;
 4//1;
 5/5=2,38=5/2;
 8/6=1,10=2,108=1/1;
 9/41=1,42=1,70=2/14;
 6/7=2,8=2,9=2,10=2/1;
 99/5=1,9=1/99;
 -------
 ABSSPCT
 -------
 Symbolic Z-matrix:
 Charge =  0 Multiplicity = 1
 6                    -0.22381   1.35726   0.0831 
 6                     1.02463   0.89372   0.01344 
 6                     1.29948  -0.40386  -0.09695 
 6                     0.25421  -1.37032   0.07349 
 6                    -1.1012   -0.9034   -0.01556 
 6                    -1.2403    0.43771  -0.07488 
 1                    -0.37454   2.40734   0.2214 
 1                    -2.36227   0.9513   -0.13215 
 1                    -1.84649  -1.82658  -0.01218 
 1                     0.36914  -2.36573   0.28142 
 1                     2.339    -0.9564    0.01949 
 1                     1.73192   1.66665  -0.20293 
 
                          Input orientation:                          
 ---------------------------------------------------------------------
 Center     Atomic      Atomic             Coordinates (Angstroms)
 Number     Number       Type             X           Y           Z
 ---------------------------------------------------------------------
      1          6           0       -0.223807    1.357263    0.083103
      2          6           0        1.024634    0.893717    0.013435
      3          6           0        1.299482   -0.403862   -0.096947
      4          6           0        0.254213   -1.370322    0.073487
      5          6           0       -1.101204   -0.903400   -0.015557
      6          6           0       -1.240298    0.437706   -0.074884
      7          1           0       -0.374544    2.407338    0.221397
      8          1           0       -2.362272    0.951303   -0.132147
      9          1           0       -1.846494   -1.826578   -0.012176
     10          1           0        0.369139   -2.365732    0.281416
     11          1           0        2.339001   -0.956402    0.019486
     12          1           0        1.731924    1.666647   -0.202926
 ---------------------------------------------------------------------
                    Distance matrix (angstroms):
                    1          2          3          4          5
     1  C    0.000000
     2  C    1.333542   0.000000
     3  C    2.335463   1.330954   0.000000
     4  C    2.769172   2.392284   1.433763   0.000000
     5  C    2.426964   2.783820   2.453457   1.436350   0.000000
     6  C    1.379783   2.312070   2.675669   2.350435   1.349604
     7  H    1.069816   2.071714   3.287333   3.832483   3.397818
     8  H    2.187275   3.390523   3.904632   3.504029   2.245842
     9  H    3.574777   3.955254   3.453761   2.151390   1.186477
    10  H    3.775129   3.335490   2.204003   1.023369   2.094878
    11  H    3.453271   2.269480   1.182987   2.126167   3.440792
    12  H    2.000603   1.069810   2.117841   3.388689   3.829734
                    6          7          8          9         10
     6  C    0.000000
     7  H    2.171811   0.000000
     8  H    1.235267   2.489195   0.000000
     9  H    2.344864   4.488567   2.827904   0.000000
    10  H    3.252153   4.831031   4.316753   2.299111   0.000000
    11  H    3.842373   4.326528   5.075855   4.275112   2.436222
    12  H    3.218819   2.272858   4.156822   5.004406   4.283906
                   11         12
    11  H    0.000000
    12  H    2.701555   0.000000
 Stoichiometry    C6H6
 Framework group  C1[X(C6H6)]
 Deg. of freedom    30
 Full point group                 C1      NOp   1
 Largest Abelian subgroup         C1      NOp   1
 Largest concise Abelian subgroup C1      NOp   1
                         Standard orientation:                         
 ---------------------------------------------------------------------
 Center     Atomic      Atomic             Coordinates (Angstroms)
 Number     Number       Type             X           Y           Z
 ---------------------------------------------------------------------
      1          6           0       -1.154082   -0.749576    0.089966
      2          6           0       -1.232107    0.579645    0.016367
      3          6           0       -0.155210    1.352733   -0.102235
      4          6           0        1.150895    0.784919    0.063153
      5          6           0        1.268011   -0.644123   -0.021843
      6          6           0        0.095774   -1.310977   -0.072796
      7          1           0       -2.054137   -1.309411    0.234849
      8          1           0        0.076444   -2.544950   -0.125927
      9          1           0        2.412971   -0.955235   -0.023497
     10          1           0        2.017134    1.291113    0.264854
     11          1           0       -0.066755    2.527067    0.009896
     12          1           0       -2.225350    0.915689   -0.195847
 ---------------------------------------------------------------------
 Rotational constants (GHZ):           5.9934501           5.6404682           2.9233369
 Standard basis: 6-31G(d,p) (6D, 7F)
 There are   120 symmetry adapted cartesian basis functions of A   symmetry.
 There are   120 symmetry adapted basis functions of A   symmetry.
   120 basis functions,   210 primitive gaussians,   120 cartesian basis functions
    21 alpha electrons       21 beta electrons
       nuclear repulsion energy       205.1036671015 Hartrees.
 NAtoms=   12 NActive=   12 NUniq=   12 SFac= 1.00D+00 NAtFMM=   60 NAOKFM=F Big=F
 Integral buffers will be    131072 words long.
 Regular integral format.
 Two-electron integral symmetry is turned on.
 One-electron integrals computed using PRISM.
 NBasis=   120 RedAO= T EigKep=  6.36D-04  NBF=   120
 NBsUse=   120 1.00D-06 EigRej= -1.00D+00 NBFU=   120
 ExpMin= 1.61D-01 ExpMax= 3.05D+03 ExpMxC= 4.57D+02 IAcc=3 IRadAn=         5 AccDes= 0.00D+00
 Harris functional with IExCor=  402 and IRadAn=       5 diagonalized for initial guess.
 HarFok:  IExCor=  402 AccDes= 0.00D+00 IRadAn=         5 IDoV= 1 UseB2=F ITyADJ=14
 ICtDFT=  3500011 ScaDFX=  1.000000  1.000000  1.000000  1.000000
 FoFCou: FMM=F IPFlag=           0 FMFlag=      100000 FMFlg1=           0
         NFxFlg=           0 DoJE=T BraDBF=F KetDBF=T FulRan=T
         wScrn=  0.000000 ICntrl=       500 IOpCl=  0 I1Cent=   200000004 NGrid=           0
         NMat0=    1 NMatS0=      1 NMatT0=    0 NMatD0=    1 NMtDS0=    0 NMtDT0=    0
 Petite list used in FoFCou.
 Keep R1 ints in memory in canonical form, NReq=30147728.
 Requested convergence on RMS density matrix=1.00D-08 within 128 cycles.
 Requested convergence on MAX density matrix=1.00D-06.
 Requested convergence on             energy=1.00D-06.
 No special actions if energy rises.
 Integral accuracy reduced to 1.0D-05 until final iterations.
 Initial convergence to 1.0D-05 achieved.  Increase integral accuracy.
 SCF Done:  E(RB3LYP) =  -232.195926743     A.U. after   13 cycles
            NFock= 13  Conv=0.38D-08     -V/T= 2.0093
 DoSCS=F DFT=T ScalE2(SS,OS)=  1.000000  1.000000
 ExpMin= 1.61D-01 ExpMax= 3.05D+03 ExpMxC= 4.57D+02 IAcc=3 IRadAn=         5 AccDes= 0.00D+00
 HarFok:  IExCor=  205 AccDes= 0.00D+00 IRadAn=         5 IDoV=-2 UseB2=F ITyADJ=14
 ICtDFT= 12500011 ScaDFX=  1.000000  1.000000  1.000000  1.000000
 Range of M.O.s used for correlation:     7   120
 NBasis=   120 NAE=    21 NBE=    21 NFC=     6 NFV=     0
 NROrb=    114 NOA=    15 NOB=    15 NVA=    99 NVB=    99
 Keep R1, R2, and R3 ints in memory in canonical form, NReq=84032236.
 Orbital symmetries:
       Occupied  (A) (A) (A) (A) (A) (A) (A) (A) (A) (A) (A) (A)
                 (A) (A) (A) (A) (A) (A) (A) (A) (A)
       Virtual   (A) (A) (A) (A) (A) (A) (A) (A) (A) (A) (A) (A)
                 (A) (A) (A) (A) (A) (A) (A) (A) (A) (A) (A) (A)
                 (A) (A) (A) (A) (A) (A) (A) (A) (A) (A) (A) (A)
                 (A) (A) (A) (A) (A) (A) (A) (A) (A) (A) (A) (A)
                 (A) (A) (A) (A) (A) (A) (A) (A) (A) (A) (A) (A)
                 (A) (A) (A) (A) (A) (A) (A) (A) (A) (A) (A) (A)
                 (A) (A) (A) (A) (A) (A) (A) (A) (A) (A) (A) (A)
                 (A) (A) (A) (A) (A) (A) (A) (A) (A) (A) (A) (A)
                 (A) (A) (A)
     4 initial guesses have been made.
 Convergence on wavefunction:    0.001000000000000
 Iteration     1 Dimension     4 NMult     0 NNew      4
 CISAX will form     4 AO SS matrices at one time.
 New state      1 was old state      2
 Iteration     2 Dimension     6 NMult     4 NNew      2
 Iteration     3 Dimension     8 NMult     6 NNew      2
 Iteration     4 Dimension    10 NMult     8 NNew      2
 Iteration     5 Dimension    12 NMult    10 NNew      2
 Iteration     6 Dimension    14 NMult    12 NNew      2
 ***********************************************************************
 Excited states from <AA,BB:AA,BB> singles matrix:
 ***********************************************************************
 
 Ground to excited state transition densities written to RWF  633
 Ground to excited state transition electric dipole moments (Au):
       state          X           Y           Z        Dip. S.      Osc.
         1         0.0697     -0.0054      0.0028      0.0049      0.0007
 Ground to excited state transition velocity dipole moments (Au):
       state          X           Y           Z        Dip. S.      Osc.
         1        -0.0138     -0.0004     -0.0002      0.0002      0.0006
 Ground to excited state transition magnetic dipole moments (Au):
       state          X           Y           Z
         1        -0.0536     -0.0343      0.0440
 Ground to excited state transition velocity quadrupole moments (Au):
       state          XX          YY          ZZ          XY          XZ          YZ
         1        -0.0144      0.0032      0.0028      0.0087      0.0225     -0.0331
 <0|del|b> * <b|rxdel|0> + <0|del|b> * <b|delr+rdel|0>
 Rotatory Strengths (R) in cgs (10**-40 erg-esu-cm/Gauss)
       state          XX          YY          ZZ    R(velocity)    E-M Angle
         1         0.0281      2.0712      0.5024      0.8672       45.58
 1/2[<0|r|b>*<b|rxdel|0> + (<0|rxdel|b>*<b|r|0>)*]
 Rotatory Strengths (R) in cgs (10**-40 erg-esu-cm/Gauss)
       state          XX          YY          ZZ     R(length)
         1         2.6438     -0.1311     -0.0861      0.8089
  1/2[<0|del|b>*<b|r|0> + (<0|r|b>*<b|del|0>)*] (Au)
       state          X           Y           Z        Dip. S.   Osc.(frdel)
         1        -0.0010      0.0000     -0.0000      0.0010      0.0006

 Excitation energies and oscillator strengths:
 
 Excited State   1:      Singlet-A      5.5443 eV  223.62 nm  f=0.0007  <S**2>=0.000
      20 -> 22         0.50619
      21 -> 22        -0.11136
      21 -> 23         0.47561
 This state for optimization and/or second-order correction.
 Total Energy, E(TD-HF/TD-DFT) =  -231.992175924    
 Copying the excited state density for this state as the 1-particle RhoCI density.
 SavETr:  write IOETrn=   770 NScale= 10 NData=  16 NLR=1 NState=    1 LETran=      28.

 **********************************************************************

            Population analysis using the SCF Density.

 **********************************************************************

 Orbital symmetries:
       Occupied  (A) (A) (A) (A) (A) (A) (A) (A) (A) (A) (A) (A)
                 (A) (A) (A) (A) (A) (A) (A) (A) (A)
       Virtual   (A) (A) (A) (A) (A) (A) (A) (A) (A) (A) (A) (A)
                 (A) (A) (A) (A) (A) (A) (A) (A) (A) (A) (A) (A)
                 (A) (A) (A) (A) (A) (A) (A) (A) (A) (A) (A) (A)
                 (A) (A) (A) (A) (A) (A) (A) (A) (A) (A) (A) (A)
                 (A) (A) (A) (A) (A) (A) (A) (A) (A) (A) (A) (A)
                 (A) (A) (A) (A) (A) (A) (A) (A) (A) (A) (A) (A)
                 (A) (A) (A) (A) (A) (A) (A) (A) (A) (A) (A) (A)
                 (A) (A) (A) (A) (A) (A) (A) (A) (A) (A) (A) (A)
                 (A) (A) (A)
 The electronic state is 1-A.
 Alpha  occ. eigenvalues --  -10.19856 -10.19777 -10.19320 -10.18659 -10.18083
 Alpha  occ. eigenvalues --  -10.17633  -0.86229  -0.75314  -0.73714  -0.60665
 Alpha  occ. eigenvalues --   -0.59210  -0.51189  -0.45981  -0.45176  -0.41284
 Alpha  occ. eigenvalues --   -0.39202  -0.37959  -0.34904  -0.30649  -0.25658
 Alpha  occ. eigenvalues --   -0.24291
 Alpha virt. eigenvalues --   -0.00749   0.00908   0.06942   0.11755   0.12983
 Alpha virt. eigenvalues --    0.15650   0.16310   0.19061   0.19798   0.28219
 Alpha virt. eigenvalues --    0.30177   0.31531   0.36158   0.45688   0.51183
 Alpha virt. eigenvalues --    0.52999   0.55512   0.56338   0.58899   0.59495
 Alpha virt. eigenvalues --    0.60506   0.62222   0.63082   0.63555   0.64086
 Alpha virt. eigenvalues --    0.66681   0.67067   0.73592   0.76824   0.79091
 Alpha virt. eigenvalues --    0.79394   0.82873   0.84268   0.91152   0.92567
 Alpha virt. eigenvalues --    0.94477   0.98350   1.01729   1.07858   1.09704
 Alpha virt. eigenvalues --    1.12759   1.16427   1.23809   1.31636   1.33595
 Alpha virt. eigenvalues --    1.38099   1.42782   1.43821   1.50013   1.55712
 Alpha virt. eigenvalues --    1.66527   1.76210   1.78245   1.79532   1.84477
 Alpha virt. eigenvalues --    1.89854   1.98664   1.99855   2.00642   2.02510
 Alpha virt. eigenvalues --    2.05461   2.07764   2.12545   2.24452   2.25882
 Alpha virt. eigenvalues --    2.27466   2.29627   2.30087   2.37006   2.41475
 Alpha virt. eigenvalues --    2.42305   2.45819   2.49076   2.49962   2.50918
 Alpha virt. eigenvalues --    2.52152   2.54628   2.56324   2.63420   2.72246
 Alpha virt. eigenvalues --    2.72609   2.74826   2.84067   2.92016   2.96613
 Alpha virt. eigenvalues --    3.05926   3.18207   3.24004   3.29923   3.33696
 Alpha virt. eigenvalues --    3.50636   3.56905   3.89900   4.15252   4.17226
 Alpha virt. eigenvalues --    4.19639   4.43218   4.46701   4.81641
          Condensed to atoms (all electrons):
               1          2          3          4          5          6
     1  C    4.787100   0.546005  -0.043270  -0.043408  -0.036702   0.554212
     2  C    0.546005   4.789652   0.548481  -0.026829  -0.052035  -0.027832
     3  C   -0.043270   0.548481   4.846485   0.533586  -0.031750  -0.051627
     4  C   -0.043408  -0.026829   0.533586   4.871433   0.512469  -0.037143
     5  C   -0.036702  -0.052035  -0.031750   0.512469   4.835404   0.560464
     6  C    0.554212  -0.027832  -0.051627  -0.037143   0.560464   4.813719
     7  H    0.377714  -0.046364   0.007193   0.000182   0.004946  -0.041470
     8  H   -0.042562   0.006594   0.000502   0.005106  -0.040408   0.342643
     9  H    0.002811   0.000229   0.004684  -0.046790   0.357839  -0.029507
    10  H    0.000995   0.004734  -0.038910   0.371039  -0.043750   0.006472
    11  H    0.004358  -0.033271   0.357594  -0.049268   0.004940   0.000531
    12  H   -0.047017   0.366993  -0.046124   0.004789   0.000917   0.007258
               7          8          9         10         11         12
     1  C    0.377714  -0.042562   0.002811   0.000995   0.004358  -0.047017
     2  C   -0.046364   0.006594   0.000229   0.004734  -0.033271   0.366993
     3  C    0.007193   0.000502   0.004684  -0.038910   0.357594  -0.046124
     4  C    0.000182   0.005106  -0.046790   0.371039  -0.049268   0.004789
     5  C    0.004946  -0.040408   0.357839  -0.043750   0.004940   0.000917
     6  C   -0.041470   0.342643  -0.029507   0.006472   0.000531   0.007258
     7  H    0.624823  -0.007818  -0.000083   0.000016  -0.000168  -0.010681
     8  H   -0.007818   0.684772  -0.005029  -0.000211   0.000013  -0.000328
     9  H   -0.000083  -0.005029   0.630856  -0.007177  -0.000230   0.000020
    10  H    0.000016  -0.000211  -0.007177   0.627760  -0.006235  -0.000186
    11  H   -0.000168   0.000013  -0.000230  -0.006235   0.649804  -0.005721
    12  H   -0.010681  -0.000328   0.000020  -0.000186  -0.005721   0.645342
 Mulliken charges:
               1
     1  C   -0.060236
     2  C   -0.076356
     3  C   -0.086843
     4  C   -0.095167
     5  C   -0.072334
     6  C   -0.097722
     7  H    0.091711
     8  H    0.056725
     9  H    0.092377
    10  H    0.085454
    11  H    0.077653
    12  H    0.084737
 Sum of Mulliken charges =  -0.00000
 Mulliken charges with hydrogens summed into heavy atoms:
               1
     1  C    0.031475
     2  C    0.008381
     3  C   -0.009190
     4  C   -0.009713
     5  C    0.020043
     6  C   -0.040996
 Electronic spatial extent (au):  <R**2>=            451.7843
 Charge=             -0.0000 electrons
 Dipole moment (field-independent basis, Debye):
    X=              0.0392    Y=              0.0813    Z=              0.1369  Tot=              0.1640
 Quadrupole moment (field-independent basis, Debye-Ang):
   XX=            -30.6928   YY=            -33.4409   ZZ=            -38.3377
   XY=              0.9702   XZ=              0.3829   YZ=              0.1704
 Traceless Quadrupole moment (field-independent basis, Debye-Ang):
   XX=              3.4644   YY=              0.7162   ZZ=             -4.1806
   XY=              0.9702   XZ=              0.3829   YZ=              0.1704
 Octapole moment (field-independent basis, Debye-Ang**2):
  XXX=              1.0670  YYY=              1.9053  ZZZ=              0.3052  XYY=             -0.1500
  XXY=             -0.5953  XXZ=              0.7584  XZZ=             -0.5630  YZZ=              0.2161
  YYZ=              0.5631  XYZ=              1.3026
 Hexadecapole moment (field-independent basis, Debye-Ang**3):
 XXXX=           -262.8147 YYYY=           -273.3312 ZZZZ=            -41.3177 XXXY=              2.9896
 XXXZ=              2.3113 YYYX=              6.0447 YYYZ=              1.7700 ZZZX=              0.4852
 ZZZY=              0.0922 XXYY=            -93.4688 XXZZ=            -60.0441 YYZZ=            -59.7054
 XXYZ=             -0.5694 YYXZ=              0.3987 ZZXY=              0.7323
 N-N= 2.051036671015D+02 E-N=-9.475232845643D+02  KE= 2.300513804135D+02
 1\1\GINC-DESKTOP-PRN5QE3\SP\RB3LYP TD-FC\6-31G(d,p)\C6H6\SHOHEI\10-Nov
 -2023\0\\# TD=(NStates=1) B3LYP/6-31G(d,p)\\ABSSPCT\\0,1\C,0,-0.223806
 6504,1.3572628813,0.0831029336\C,0,1.0246342629,0.8937168629,0.0134350
 097\C,0,1.2994815428,-0.4038624422,-0.0969474389\C,0,0.2542134354,-1.3
 703216404,0.0734865931\C,0,-1.1012036717,-0.9033995041,-0.0155574752\C
 ,0,-1.2402984632,0.4377059357,-0.0748841744\H,0,-0.3745444247,2.407338
 375,0.2213969869\H,0,-2.3622719304,0.9513030235,-0.1321474762\H,0,-1.8
 464941049,-1.8265777508,-0.0121759823\H,0,0.3691385433,-2.3657317739,0
 .2814161927\H,0,2.3390014144,-0.9564020385,0.0194857692\H,0,1.73192371
 51,1.6666474797,-0.2029264587\\Version=EM64L-G16RevB.01\State=1-A\HF=-
 232.1959267\RMSD=3.849e-09\PG=C01 [X(C6H6)]\\@


 EXPERIENCE IS THE FRUIT OF THE TREE OF ERRORS.
 Job cpu time:       0 days  0 hours  3 minutes 35.9 seconds.
 Elapsed time:       0 days  0 hours  0 minutes 54.6 seconds.
 File lengths (MBytes):  RWF=    116 Int=      0 D2E=      0 Chk=      3 Scr=      1
 Normal termination of Gaussian 16 at Fri Nov 10 18:48:11 2023.
