 Entering Gaussian System, Link 0=g16
 Input=Geometry-83-.com
 Output=Geometry-83-.log
 Initial command:
 /home/shohei/gaussian/g16/l1.exe "/home/shohei/gaussian/scratch/Gau-30882.inp" -scrdir="/home/shohei/gaussian/scratch/"
 Entering Link 1 = /home/shohei/gaussian/g16/l1.exe PID=     30884.
  
 Copyright (c) 1988-2017, Gaussian, Inc.  All Rights Reserved.
  
 This is part of the Gaussian(R) 16 program.  It is based on
 the Gaussian(R) 09 system (copyright 2009, Gaussian, Inc.),
 the Gaussian(R) 03 system (copyright 2003, Gaussian, Inc.),
 the Gaussian(R) 98 system (copyright 1998, Gaussian, Inc.),
 the Gaussian(R) 94 system (copyright 1995, Gaussian, Inc.),
 the Gaussian 92(TM) system (copyright 1992, Gaussian, Inc.),
 the Gaussian 90(TM) system (copyright 1990, Gaussian, Inc.),
 the Gaussian 88(TM) system (copyright 1988, Gaussian, Inc.),
 the Gaussian 86(TM) system (copyright 1986, Carnegie Mellon
 University), and the Gaussian 82(TM) system (copyright 1983,
 Carnegie Mellon University). Gaussian is a federally registered
 trademark of Gaussian, Inc.
  
 This software contains proprietary and confidential information,
 including trade secrets, belonging to Gaussian, Inc.
  
 This software is provided under written license and may be
 used, copied, transmitted, or stored only in accord with that
 written license.
  
 The following legend is applicable only to US Government
 contracts under FAR:
  
                    RESTRICTED RIGHTS LEGEND
  
 Use, reproduction and disclosure by the US Government is
 subject to restrictions as set forth in subparagraphs (a)
 and (c) of the Commercial Computer Software - Restricted
 Rights clause in FAR 52.227-19.
  
 Gaussian, Inc.
 340 Quinnipiac St., Bldg. 40, Wallingford CT 06492
  
  
 ---------------------------------------------------------------
 Warning -- This program may not be used in any manner that
 competes with the business of Gaussian, Inc. or will provide
 assistance to any competitor of Gaussian, Inc.  The licensee
 of this program is prohibited from giving any competitor of
 Gaussian, Inc. access to this program.  By using this program,
 the user acknowledges that Gaussian, Inc. is engaged in the
 business of creating and licensing software in the field of
 computational chemistry and represents and warrants to the
 licensee that it is not a competitor of Gaussian, Inc. and that
 it will not use this program in any manner prohibited above.
 ---------------------------------------------------------------
  

 Cite this work as:
 Gaussian 16, Revision B.01,
 M. J. Frisch, G. W. Trucks, H. B. Schlegel, G. E. Scuseria, 
 M. A. Robb, J. R. Cheeseman, G. Scalmani, V. Barone, 
 G. A. Petersson, H. Nakatsuji, X. Li, M. Caricato, A. V. Marenich, 
 J. Bloino, B. G. Janesko, R. Gomperts, B. Mennucci, H. P. Hratchian, 
 J. V. Ortiz, A. F. Izmaylov, J. L. Sonnenberg, D. Williams-Young, 
 F. Ding, F. Lipparini, F. Egidi, J. Goings, B. Peng, A. Petrone, 
 T. Henderson, D. Ranasinghe, V. G. Zakrzewski, J. Gao, N. Rega, 
 G. Zheng, W. Liang, M. Hada, M. Ehara, K. Toyota, R. Fukuda, 
 J. Hasegawa, M. Ishida, T. Nakajima, Y. Honda, O. Kitao, H. Nakai, 
 T. Vreven, K. Throssell, J. A. Montgomery, Jr., J. E. Peralta, 
 F. Ogliaro, M. J. Bearpark, J. J. Heyd, E. N. Brothers, K. N. Kudin, 
 V. N. Staroverov, T. A. Keith, R. Kobayashi, J. Normand, 
 K. Raghavachari, A. P. Rendell, J. C. Burant, S. S. Iyengar, 
 J. Tomasi, M. Cossi, J. M. Millam, M. Klene, C. Adamo, R. Cammi, 
 J. W. Ochterski, R. L. Martin, K. Morokuma, O. Farkas, 
 J. B. Foresman, and D. J. Fox, Gaussian, Inc., Wallingford CT, 2016.
 
 ******************************************
 Gaussian 16:  EM64L-G16RevB.01 20-Dec-2017
                10-Nov-2023 
 ******************************************
 %nproc=4
 Will use up to    4 processors via shared memory.
 %Mem=2Gb
 ---------------------------------
 # TD=(NStates=1) B3LYP/6-31G(d,p)
 ---------------------------------
 1/38=1,172=1/1;
 2/12=2,17=6,18=5,40=1/2;
 3/5=1,6=6,7=101,11=9,25=1,30=1,74=-5/1,2,3,8;
 4//1;
 5/5=2,38=5/2;
 8/6=1,10=2,108=1/1;
 9/41=1,42=1,70=2/14;
 6/7=2,8=2,9=2,10=2/1;
 99/5=1,9=1/99;
 -------
 ABSSPCT
 -------
 Symbolic Z-matrix:
 Charge =  0 Multiplicity = 1
 6                    -0.30447   1.42733   0.04648 
 6                     1.02495   0.8701   -0.02027 
 6                     1.32565  -0.48302   0.00953 
 6                     0.26949  -1.30119  -0.01525 
 6                    -1.02373  -0.92575  -0.03258 
 6                    -1.29003   0.43766   0.02096 
 1                    -0.3841    2.39805  -0.06291 
 1                    -2.36535   0.91964  -0.20407 
 1                    -2.03745  -1.61588   0.15739 
 1                     0.4227   -2.44618   0.05414 
 1                     2.26949  -0.9558    0.16589 
 1                     2.01891   1.40372  -0.20802 
 
                          Input orientation:                          
 ---------------------------------------------------------------------
 Center     Atomic      Atomic             Coordinates (Angstroms)
 Number     Number       Type             X           Y           Z
 ---------------------------------------------------------------------
      1          6           0       -0.304466    1.427330    0.046480
      2          6           0        1.024951    0.870102   -0.020271
      3          6           0        1.325653   -0.483021    0.009535
      4          6           0        0.269492   -1.301193   -0.015253
      5          6           0       -1.023729   -0.925755   -0.032583
      6          6           0       -1.290032    0.437658    0.020964
      7          1           0       -0.384097    2.398050   -0.062908
      8          1           0       -2.365354    0.919641   -0.204074
      9          1           0       -2.037450   -1.615876    0.157392
     10          1           0        0.422704   -2.446183    0.054142
     11          1           0        2.269493   -0.955803    0.165889
     12          1           0        2.018912    1.403723   -0.208020
 ---------------------------------------------------------------------
                    Distance matrix (angstroms):
                    1          2          3          4          5
     1  C    0.000000
     2  C    1.443020   0.000000
     3  C    2.511592   1.386453   0.000000
     4  C    2.788921   2.298971   1.336224   0.000000
     5  C    2.461828   2.724397   2.391104   1.346727   0.000000
     6  C    1.396941   2.355389   2.773011   2.336029   1.390208
     7  H    0.980104   2.078908   3.350979   3.756840   3.384926
     8  H    2.137238   3.395646   3.954317   3.451112   2.287980
     9  H    3.503804   3.948411   3.551856   2.334697   1.240963
    10  H    3.941185   3.371347   2.161321   1.157277   2.100331
    11  H    3.509821   2.217536   1.067147   2.037673   3.299333
    12  H    2.337394   1.143660   2.021816   3.227104   3.836001
                    6          7          8          9         10
     6  C    0.000000
     7  H    2.161224   0.000000
     8  H    1.199695   2.476086   0.000000
     9  H    2.189577   4.346690   2.582059   0.000000
    10  H    3.354266   4.912353   4.378209   2.598543   0.000000
    11  H    3.825304   4.282781   5.013578   4.357238   2.375784
    12  H    3.454682   2.604649   4.410912   5.070066   4.175928
                   11         12
    11  H    0.000000
    12  H    2.402073   0.000000
 Stoichiometry    C6H6
 Framework group  C1[X(C6H6)]
 Deg. of freedom    30
 Full point group                 C1      NOp   1
 Largest Abelian subgroup         C1      NOp   1
 Largest concise Abelian subgroup C1      NOp   1
                         Standard orientation:                         
 ---------------------------------------------------------------------
 Center     Atomic      Atomic             Coordinates (Angstroms)
 Number     Number       Type             X           Y           Z
 ---------------------------------------------------------------------
      1          6           0       -1.082741   -0.982310   -0.062858
      2          6           0        0.320833   -1.309247    0.010621
      3          6           0        1.356823   -0.387975   -0.004680
      4          6           0        0.979212    0.893364    0.028094
      5          6           0       -0.289177    1.345810    0.040635
      6          6           0       -1.302741    0.396745   -0.027498
      7          1           0       -1.716202   -1.723605    0.036206
      8          1           0       -2.458213    0.633561    0.191751
      9          1           0       -0.705887    2.500254   -0.142669
     10          1           0        1.774064    1.732549   -0.029090
     11          1           0        2.399845   -0.555853   -0.155429
     12          1           0        0.813137   -2.325224    0.193343
 ---------------------------------------------------------------------
 Rotational constants (GHZ):           5.8919580           5.6312843           2.8858434
 Standard basis: 6-31G(d,p) (6D, 7F)
 There are   120 symmetry adapted cartesian basis functions of A   symmetry.
 There are   120 symmetry adapted basis functions of A   symmetry.
   120 basis functions,   210 primitive gaussians,   120 cartesian basis functions
    21 alpha electrons       21 beta electrons
       nuclear repulsion energy       204.1521032653 Hartrees.
 NAtoms=   12 NActive=   12 NUniq=   12 SFac= 1.00D+00 NAtFMM=   60 NAOKFM=F Big=F
 Integral buffers will be    131072 words long.
 Regular integral format.
 Two-electron integral symmetry is turned on.
 One-electron integrals computed using PRISM.
 NBasis=   120 RedAO= T EigKep=  7.03D-04  NBF=   120
 NBsUse=   120 1.00D-06 EigRej= -1.00D+00 NBFU=   120
 ExpMin= 1.61D-01 ExpMax= 3.05D+03 ExpMxC= 4.57D+02 IAcc=3 IRadAn=         5 AccDes= 0.00D+00
 Harris functional with IExCor=  402 and IRadAn=       5 diagonalized for initial guess.
 HarFok:  IExCor=  402 AccDes= 0.00D+00 IRadAn=         5 IDoV= 1 UseB2=F ITyADJ=14
 ICtDFT=  3500011 ScaDFX=  1.000000  1.000000  1.000000  1.000000
 FoFCou: FMM=F IPFlag=           0 FMFlag=      100000 FMFlg1=           0
         NFxFlg=           0 DoJE=T BraDBF=F KetDBF=T FulRan=T
         wScrn=  0.000000 ICntrl=       500 IOpCl=  0 I1Cent=   200000004 NGrid=           0
         NMat0=    1 NMatS0=      1 NMatT0=    0 NMatD0=    1 NMtDS0=    0 NMtDT0=    0
 Petite list used in FoFCou.
 Keep R1 ints in memory in canonical form, NReq=30147728.
 Requested convergence on RMS density matrix=1.00D-08 within 128 cycles.
 Requested convergence on MAX density matrix=1.00D-06.
 Requested convergence on             energy=1.00D-06.
 No special actions if energy rises.
 Integral accuracy reduced to 1.0D-05 until final iterations.
 Initial convergence to 1.0D-05 achieved.  Increase integral accuracy.
 SCF Done:  E(RB3LYP) =  -232.190981041     A.U. after   13 cycles
            NFock= 13  Conv=0.34D-08     -V/T= 2.0098
 DoSCS=F DFT=T ScalE2(SS,OS)=  1.000000  1.000000
 ExpMin= 1.61D-01 ExpMax= 3.05D+03 ExpMxC= 4.57D+02 IAcc=3 IRadAn=         5 AccDes= 0.00D+00
 HarFok:  IExCor=  205 AccDes= 0.00D+00 IRadAn=         5 IDoV=-2 UseB2=F ITyADJ=14
 ICtDFT= 12500011 ScaDFX=  1.000000  1.000000  1.000000  1.000000
 Range of M.O.s used for correlation:     7   120
 NBasis=   120 NAE=    21 NBE=    21 NFC=     6 NFV=     0
 NROrb=    114 NOA=    15 NOB=    15 NVA=    99 NVB=    99
 Keep R1, R2, and R3 ints in memory in canonical form, NReq=84032236.
 Orbital symmetries:
       Occupied  (A) (A) (A) (A) (A) (A) (A) (A) (A) (A) (A) (A)
                 (A) (A) (A) (A) (A) (A) (A) (A) (A)
       Virtual   (A) (A) (A) (A) (A) (A) (A) (A) (A) (A) (A) (A)
                 (A) (A) (A) (A) (A) (A) (A) (A) (A) (A) (A) (A)
                 (A) (A) (A) (A) (A) (A) (A) (A) (A) (A) (A) (A)
                 (A) (A) (A) (A) (A) (A) (A) (A) (A) (A) (A) (A)
                 (A) (A) (A) (A) (A) (A) (A) (A) (A) (A) (A) (A)
                 (A) (A) (A) (A) (A) (A) (A) (A) (A) (A) (A) (A)
                 (A) (A) (A) (A) (A) (A) (A) (A) (A) (A) (A) (A)
                 (A) (A) (A) (A) (A) (A) (A) (A) (A) (A) (A) (A)
                 (A) (A) (A)
     4 initial guesses have been made.
 Convergence on wavefunction:    0.001000000000000
 Iteration     1 Dimension     4 NMult     0 NNew      4
 CISAX will form     4 AO SS matrices at one time.
 New state      1 was old state      2
 Iteration     2 Dimension     6 NMult     4 NNew      2
 Iteration     3 Dimension     8 NMult     6 NNew      2
 Iteration     4 Dimension    10 NMult     8 NNew      2
 Iteration     5 Dimension    12 NMult    10 NNew      2
 ***********************************************************************
 Excited states from <AA,BB:AA,BB> singles matrix:
 ***********************************************************************
 
 Ground to excited state transition densities written to RWF  633
 Ground to excited state transition electric dipole moments (Au):
       state          X           Y           Z        Dip. S.      Osc.
         1         0.0919     -0.0473     -0.0030      0.0107      0.0014
 Ground to excited state transition velocity dipole moments (Au):
       state          X           Y           Z        Dip. S.      Osc.
         1        -0.0200      0.0105     -0.0015      0.0005      0.0017
 Ground to excited state transition magnetic dipole moments (Au):
       state          X           Y           Z
         1        -0.0294     -0.0553      0.1508
 Ground to excited state transition velocity quadrupole moments (Au):
       state          XX          YY          ZZ          XY          XZ          YZ
         1        -0.0091      0.0021      0.0038      0.0049     -0.0003      0.0011
 <0|del|b> * <b|rxdel|0> + <0|del|b> * <b|delr+rdel|0>
 Rotatory Strengths (R) in cgs (10**-40 erg-esu-cm/Gauss)
       state          XX          YY          ZZ    R(velocity)    E-M Angle
         1        -1.4273      0.5990      0.0543     -0.2580       93.42
 1/2[<0|r|b>*<b|rxdel|0> + (<0|rxdel|b>*<b|r|0>)*]
 Rotatory Strengths (R) in cgs (10**-40 erg-esu-cm/Gauss)
       state          XX          YY          ZZ     R(length)
         1         1.9103     -1.8514      0.3221      0.1270
  1/2[<0|del|b>*<b|r|0> + (<0|r|b>*<b|del|0>)*] (Au)
       state          X           Y           Z        Dip. S.   Osc.(frdel)
         1        -0.0018     -0.0005      0.0000      0.0023      0.0016

 Excitation energies and oscillator strengths:
 
 Excited State   1:      Singlet-A      5.4926 eV  225.73 nm  f=0.0014  <S**2>=0.000
      20 -> 22         0.43586
      20 -> 23        -0.14254
      21 -> 22         0.20667
      21 -> 23         0.49625
 This state for optimization and/or second-order correction.
 Total Energy, E(TD-HF/TD-DFT) =  -231.989132346    
 Copying the excited state density for this state as the 1-particle RhoCI density.
 SavETr:  write IOETrn=   770 NScale= 10 NData=  16 NLR=1 NState=    1 LETran=      28.

 **********************************************************************

            Population analysis using the SCF Density.

 **********************************************************************

 Orbital symmetries:
       Occupied  (A) (A) (A) (A) (A) (A) (A) (A) (A) (A) (A) (A)
                 (A) (A) (A) (A) (A) (A) (A) (A) (A)
       Virtual   (A) (A) (A) (A) (A) (A) (A) (A) (A) (A) (A) (A)
                 (A) (A) (A) (A) (A) (A) (A) (A) (A) (A) (A) (A)
                 (A) (A) (A) (A) (A) (A) (A) (A) (A) (A) (A) (A)
                 (A) (A) (A) (A) (A) (A) (A) (A) (A) (A) (A) (A)
                 (A) (A) (A) (A) (A) (A) (A) (A) (A) (A) (A) (A)
                 (A) (A) (A) (A) (A) (A) (A) (A) (A) (A) (A) (A)
                 (A) (A) (A) (A) (A) (A) (A) (A) (A) (A) (A) (A)
                 (A) (A) (A) (A) (A) (A) (A) (A) (A) (A) (A) (A)
                 (A) (A) (A)
 The electronic state is 1-A.
 Alpha  occ. eigenvalues --  -10.20051 -10.19750 -10.19719 -10.18846 -10.18581
 Alpha  occ. eigenvalues --  -10.18034  -0.85904  -0.75188  -0.73850  -0.60455
 Alpha  occ. eigenvalues --   -0.59273  -0.51808  -0.46220  -0.43529  -0.42413
 Alpha  occ. eigenvalues --   -0.39903  -0.36472  -0.33258  -0.32421  -0.25543
 Alpha  occ. eigenvalues --   -0.24374
 Alpha virt. eigenvalues --   -0.00312   0.00167   0.06386   0.12579   0.13071
 Alpha virt. eigenvalues --    0.15516   0.16185   0.18260   0.18786   0.27637
 Alpha virt. eigenvalues --    0.30522   0.32621   0.34510   0.43826   0.49728
 Alpha virt. eigenvalues --    0.52231   0.55343   0.57572   0.59049   0.59259
 Alpha virt. eigenvalues --    0.60255   0.62359   0.62759   0.63822   0.65775
 Alpha virt. eigenvalues --    0.66763   0.67237   0.73768   0.76464   0.78178
 Alpha virt. eigenvalues --    0.79679   0.83344   0.86340   0.91287   0.92769
 Alpha virt. eigenvalues --    0.93800   0.97853   1.06334   1.07273   1.09548
 Alpha virt. eigenvalues --    1.11160   1.16192   1.24096   1.26283   1.34972
 Alpha virt. eigenvalues --    1.37554   1.42633   1.45625   1.46656   1.56913
 Alpha virt. eigenvalues --    1.60935   1.74866   1.77600   1.81326   1.82663
 Alpha virt. eigenvalues --    1.89473   1.97282   1.99845   2.01938   2.03350
 Alpha virt. eigenvalues --    2.06408   2.09633   2.12844   2.20979   2.25242
 Alpha virt. eigenvalues --    2.26196   2.30754   2.32953   2.38229   2.38605
 Alpha virt. eigenvalues --    2.41163   2.42559   2.44882   2.48070   2.49032
 Alpha virt. eigenvalues --    2.50727   2.52886   2.58655   2.64573   2.69512
 Alpha virt. eigenvalues --    2.75426   2.77556   2.81102   2.87405   3.00990
 Alpha virt. eigenvalues --    3.06617   3.14107   3.20105   3.25831   3.38799
 Alpha virt. eigenvalues --    3.44446   3.63359   3.90438   4.13921   4.17425
 Alpha virt. eigenvalues --    4.18229   4.43719   4.45962   4.80955
          Condensed to atoms (all electrons):
               1          2          3          4          5          6
     1  C    4.789233   0.523320  -0.037970  -0.041283  -0.042512   0.536189
     2  C    0.523320   4.897783   0.530426  -0.027108  -0.054868  -0.019692
     3  C   -0.037970   0.530426   4.793287   0.566301  -0.044675  -0.046754
     4  C   -0.041283  -0.027108   0.566301   4.759294   0.566201  -0.029251
     5  C   -0.042512  -0.054868  -0.044675   0.566201   4.832898   0.523355
     6  C    0.536189  -0.019692  -0.046754  -0.029251   0.523355   4.870581
     7  H    0.388170  -0.046467   0.004665   0.000085   0.005356  -0.044578
     8  H   -0.045992   0.004756   0.000961   0.004145  -0.030887   0.347219
     9  H    0.003584   0.000164   0.003722  -0.027380   0.353017  -0.041123
    10  H    0.000699   0.007204  -0.044104   0.351091  -0.045646   0.006206
    11  H    0.003898  -0.041656   0.378658  -0.042947   0.006296  -0.000043
    12  H   -0.033387   0.349450  -0.050121   0.006484   0.001240   0.004295
               7          8          9         10         11         12
     1  C    0.388170  -0.045992   0.003584   0.000699   0.003898  -0.033387
     2  C   -0.046467   0.004756   0.000164   0.007204  -0.041656   0.349450
     3  C    0.004665   0.000961   0.003722  -0.044104   0.378658  -0.050121
     4  C    0.000085   0.004145  -0.027380   0.351091  -0.042947   0.006484
     5  C    0.005356  -0.030887   0.353017  -0.045646   0.006296   0.001240
     6  C   -0.044578   0.347219  -0.041123   0.006206  -0.000043   0.004295
     7  H    0.616793  -0.005849  -0.000148   0.000019  -0.000140  -0.004175
     8  H   -0.005849   0.659475  -0.005636  -0.000181   0.000016  -0.000167
     9  H   -0.000148  -0.005636   0.636102  -0.007048  -0.000142   0.000012
    10  H    0.000019  -0.000181  -0.007048   0.672617  -0.009622  -0.000348
    11  H   -0.000140   0.000016  -0.000142  -0.009622   0.618126  -0.007096
    12  H   -0.004175  -0.000167   0.000012  -0.000348  -0.007096   0.657392
 Mulliken charges:
               1
     1  C   -0.043949
     2  C   -0.123311
     3  C   -0.054396
     4  C   -0.085633
     5  C   -0.069775
     6  C   -0.106405
     7  H    0.086268
     8  H    0.072140
     9  H    0.084875
    10  H    0.069112
    11  H    0.094652
    12  H    0.076421
 Sum of Mulliken charges =  -0.00000
 Mulliken charges with hydrogens summed into heavy atoms:
               1
     1  C    0.042320
     2  C   -0.046889
     3  C    0.040256
     4  C   -0.016521
     5  C    0.015100
     6  C   -0.034265
 Electronic spatial extent (au):  <R**2>=            455.8507
 Charge=             -0.0000 electrons
 Dipole moment (field-independent basis, Debye):
    X=              0.0963    Y=             -0.1442    Z=              0.0342  Tot=              0.1768
 Quadrupole moment (field-independent basis, Debye-Ang):
   XX=            -31.5642   YY=            -32.6580   ZZ=            -38.4645
   XY=              0.0946   XZ=             -0.5399   YZ=             -0.5981
 Traceless Quadrupole moment (field-independent basis, Debye-Ang):
   XX=              2.6647   YY=              1.5709   ZZ=             -4.2356
   XY=              0.0946   XZ=             -0.5399   YZ=             -0.5981
 Octapole moment (field-independent basis, Debye-Ang**2):
  XXX=              1.8663  YYY=              0.2269  ZZZ=              0.0593  XYY=             -1.2025
  XXY=             -2.0218  XXZ=              0.2025  XZZ=              0.3196  YZZ=             -0.4153
  YYZ=             -0.0358  XYZ=              0.0082
 Hexadecapole moment (field-independent basis, Debye-Ang**3):
 XXXX=           -275.8506 YYYY=           -274.6077 ZZZZ=            -40.6259 XXXY=              2.0879
 XXXZ=             -5.0384 YYYX=             -0.2456 YYYZ=             -4.6619 ZZZX=             -0.5408
 ZZZY=             -0.4532 XXYY=            -90.6982 XXZZ=            -60.9642 YYZZ=            -60.0035
 XXYZ=              0.0191 YYXZ=              0.6148 ZZXY=              0.4343
 N-N= 2.041521032653D+02 E-N=-9.454954619088D+02  KE= 2.299382567338D+02
 1\1\GINC-DESKTOP-PRN5QE3\SP\RB3LYP TD-FC\6-31G(d,p)\C6H6\SHOHEI\10-Nov
 -2023\0\\# TD=(NStates=1) B3LYP/6-31G(d,p)\\ABSSPCT\\0,1\C,0,-0.304465
 8165,1.4273301746,0.0464799398\C,0,1.0249509511,0.8701017484,-0.020270
 6412\C,0,1.3256525127,-0.4830210346,0.0095346891\C,0,0.2694916525,-1.3
 011931636,-0.0152534257\C,0,-1.0237286714,-0.9257548434,-0.0325826082\
 C,0,-1.2900324263,0.437657826,0.020963827\H,0,-0.3840969049,2.39804973
 93,-0.0629083158\H,0,-2.3653544647,0.9196407618,-0.2040742194\H,0,-2.0
 374497858,-1.6158764037,0.1573919688\H,0,0.4227039502,-2.4461826091,0.
 0541422022\H,0,2.2694927341,-0.9558025306,0.1658887115\H,0,2.018911837
 8,1.4037225054,-0.2080200958\\Version=EM64L-G16RevB.01\State=1-A\HF=-2
 32.190981\RMSD=3.386e-09\PG=C01 [X(C6H6)]\\@


 CHEMISTRY BEGAN BY SAYING IT WOULD CHANGE THE BASER
 METALS INTO GOLD.  BY NOT DOING THAT IT HAS DONE MUCH
 GREATER THINGS.  --  RALPH WALDO EMERSON
 Job cpu time:       0 days  0 hours  3 minutes  4.9 seconds.
 Elapsed time:       0 days  0 hours  0 minutes 46.9 seconds.
 File lengths (MBytes):  RWF=    116 Int=      0 D2E=      0 Chk=      3 Scr=      1
 Normal termination of Gaussian 16 at Fri Nov 10 17:15:17 2023.
