 Entering Gaussian System, Link 0=g16
 Input=Geometry-122-.com
 Output=Geometry-122-.log
 Initial command:
 /home/shohei/gaussian/g16/l1.exe "/home/shohei/gaussian/scratch/Gau-1726.inp" -scrdir="/home/shohei/gaussian/scratch/"
 Entering Link 1 = /home/shohei/gaussian/g16/l1.exe PID=      1728.
  
 Copyright (c) 1988-2017, Gaussian, Inc.  All Rights Reserved.
  
 This is part of the Gaussian(R) 16 program.  It is based on
 the Gaussian(R) 09 system (copyright 2009, Gaussian, Inc.),
 the Gaussian(R) 03 system (copyright 2003, Gaussian, Inc.),
 the Gaussian(R) 98 system (copyright 1998, Gaussian, Inc.),
 the Gaussian(R) 94 system (copyright 1995, Gaussian, Inc.),
 the Gaussian 92(TM) system (copyright 1992, Gaussian, Inc.),
 the Gaussian 90(TM) system (copyright 1990, Gaussian, Inc.),
 the Gaussian 88(TM) system (copyright 1988, Gaussian, Inc.),
 the Gaussian 86(TM) system (copyright 1986, Carnegie Mellon
 University), and the Gaussian 82(TM) system (copyright 1983,
 Carnegie Mellon University). Gaussian is a federally registered
 trademark of Gaussian, Inc.
  
 This software contains proprietary and confidential information,
 including trade secrets, belonging to Gaussian, Inc.
  
 This software is provided under written license and may be
 used, copied, transmitted, or stored only in accord with that
 written license.
  
 The following legend is applicable only to US Government
 contracts under FAR:
  
                    RESTRICTED RIGHTS LEGEND
  
 Use, reproduction and disclosure by the US Government is
 subject to restrictions as set forth in subparagraphs (a)
 and (c) of the Commercial Computer Software - Restricted
 Rights clause in FAR 52.227-19.
  
 Gaussian, Inc.
 340 Quinnipiac St., Bldg. 40, Wallingford CT 06492
  
  
 ---------------------------------------------------------------
 Warning -- This program may not be used in any manner that
 competes with the business of Gaussian, Inc. or will provide
 assistance to any competitor of Gaussian, Inc.  The licensee
 of this program is prohibited from giving any competitor of
 Gaussian, Inc. access to this program.  By using this program,
 the user acknowledges that Gaussian, Inc. is engaged in the
 business of creating and licensing software in the field of
 computational chemistry and represents and warrants to the
 licensee that it is not a competitor of Gaussian, Inc. and that
 it will not use this program in any manner prohibited above.
 ---------------------------------------------------------------
  

 Cite this work as:
 Gaussian 16, Revision B.01,
 M. J. Frisch, G. W. Trucks, H. B. Schlegel, G. E. Scuseria, 
 M. A. Robb, J. R. Cheeseman, G. Scalmani, V. Barone, 
 G. A. Petersson, H. Nakatsuji, X. Li, M. Caricato, A. V. Marenich, 
 J. Bloino, B. G. Janesko, R. Gomperts, B. Mennucci, H. P. Hratchian, 
 J. V. Ortiz, A. F. Izmaylov, J. L. Sonnenberg, D. Williams-Young, 
 F. Ding, F. Lipparini, F. Egidi, J. Goings, B. Peng, A. Petrone, 
 T. Henderson, D. Ranasinghe, V. G. Zakrzewski, J. Gao, N. Rega, 
 G. Zheng, W. Liang, M. Hada, M. Ehara, K. Toyota, R. Fukuda, 
 J. Hasegawa, M. Ishida, T. Nakajima, Y. Honda, O. Kitao, H. Nakai, 
 T. Vreven, K. Throssell, J. A. Montgomery, Jr., J. E. Peralta, 
 F. Ogliaro, M. J. Bearpark, J. J. Heyd, E. N. Brothers, K. N. Kudin, 
 V. N. Staroverov, T. A. Keith, R. Kobayashi, J. Normand, 
 K. Raghavachari, A. P. Rendell, J. C. Burant, S. S. Iyengar, 
 J. Tomasi, M. Cossi, J. M. Millam, M. Klene, C. Adamo, R. Cammi, 
 J. W. Ochterski, R. L. Martin, K. Morokuma, O. Farkas, 
 J. B. Foresman, and D. J. Fox, Gaussian, Inc., Wallingford CT, 2016.
 
 ******************************************
 Gaussian 16:  EM64L-G16RevB.01 20-Dec-2017
                10-Nov-2023 
 ******************************************
 %nproc=4
 Will use up to    4 processors via shared memory.
 %Mem=2Gb
 ---------------------------------
 # TD=(NStates=1) B3LYP/6-31G(d,p)
 ---------------------------------
 1/38=1,172=1/1;
 2/12=2,17=6,18=5,40=1/2;
 3/5=1,6=6,7=101,11=9,25=1,30=1,74=-5/1,2,3,8;
 4//1;
 5/5=2,38=5/2;
 8/6=1,10=2,108=1/1;
 9/41=1,42=1,70=2/14;
 6/7=2,8=2,9=2,10=2/1;
 99/5=1,9=1/99;
 -------
 ABSSPCT
 -------
 Symbolic Z-matrix:
 Charge =  0 Multiplicity = 1
 6                    -0.26525   1.40509  -0.01045 
 6                     1.05301   0.9251    0.00114 
 6                     1.3096   -0.46763   0.03814 
 6                     0.27004  -1.38002  -0.01476 
 6                    -1.05185  -0.92484   0.01403 
 6                    -1.29279   0.46392  -0.01766 
 1                    -0.43194   2.46151   0.06531 
 1                    -2.31177   0.82658   0.07537 
 1                    -1.90064  -1.66431   0.01717 
 1                     0.18053  -2.5737   -0.10767 
 1                     2.39692  -0.97267  -0.08927 
 1                     1.77875   1.7135   -0.09458 
 
                          Input orientation:                          
 ---------------------------------------------------------------------
 Center     Atomic      Atomic             Coordinates (Angstroms)
 Number     Number       Type             X           Y           Z
 ---------------------------------------------------------------------
      1          6           0       -0.265254    1.405086   -0.010452
      2          6           0        1.053009    0.925102    0.001143
      3          6           0        1.309602   -0.467628    0.038140
      4          6           0        0.270037   -1.380019   -0.014756
      5          6           0       -1.051849   -0.924842    0.014030
      6          6           0       -1.292789    0.463920   -0.017656
      7          1           0       -0.431941    2.461507    0.065307
      8          1           0       -2.311773    0.826579    0.075366
      9          1           0       -1.900637   -1.664312    0.017166
     10          1           0        0.180529   -2.573704   -0.107669
     11          1           0        2.396922   -0.972665   -0.089270
     12          1           0        1.778753    1.713501   -0.094584
 ---------------------------------------------------------------------
                    Distance matrix (angstroms):
                    1          2          3          4          5
     1  C    0.000000
     2  C    1.402974   0.000000
     3  C    2.447364   1.416653   0.000000
     4  C    2.836083   2.434519   1.384179   0.000000
     5  C    2.459247   2.802300   2.405426   1.398355   0.000000
     6  C    1.393439   2.390777   2.764658   2.417135   1.409863
     7  H    1.072170   2.137693   3.407864   3.905957   3.443003
     8  H    2.128444   3.367043   3.845870   3.397490   2.158390
     9  H    3.477994   3.928021   3.426095   2.189444   1.125730
    10  H    4.004865   3.607590   2.394081   1.200637   2.062113
    11  H    3.570308   2.327187   1.205637   2.166825   3.450649
    12  H    2.068856   1.075843   2.234958   3.442740   3.871040
                    6          7          8          9         10
     6  C    0.000000
     7  H    2.176763   0.000000
     8  H    1.085589   2.491357   0.000000
     9  H    2.213608   4.379699   2.525264   0.000000
    10  H    3.377266   5.075272   4.219833   2.274605   0.000000
    11  H    3.960161   4.451954   5.043431   4.354161   2.734239
    12  H    3.316887   2.339283   4.189023   4.996000   4.575436
                   11         12
    11  H    0.000000
    12  H    2.756383   0.000000
 Stoichiometry    C6H6
 Framework group  C1[X(C6H6)]
 Deg. of freedom    30
 Full point group                 C1      NOp   1
 Largest Abelian subgroup         C1      NOp   1
 Largest concise Abelian subgroup C1      NOp   1
                         Standard orientation:                         
 ---------------------------------------------------------------------
 Center     Atomic      Atomic             Coordinates (Angstroms)
 Number     Number       Type             X           Y           Z
 ---------------------------------------------------------------------
      1          6           0        1.372648   -0.404622    0.015341
      2          6           0        1.030573    0.955854   -0.005293
      3          6           0       -0.328336    1.353824   -0.048789
      4          6           0       -1.342788    0.413728    0.006525
      5          6           0       -1.025637   -0.948043   -0.013291
      6          6           0        0.330948   -1.330066    0.024793
      7          1           0        2.406601   -0.679304   -0.055641
      8          1           0        0.587363   -2.381421   -0.061270
      9          1           0       -1.848325   -1.716450   -0.014432
     10          1           0       -2.539633    0.447763    0.095576
     11          1           0       -0.719466    2.487969    0.070763
     12          1           0        1.889015    1.597391    0.089295
 ---------------------------------------------------------------------
 Rotational constants (GHZ):           5.7948049           5.4608681           2.8135235
 Standard basis: 6-31G(d,p) (6D, 7F)
 There are   120 symmetry adapted cartesian basis functions of A   symmetry.
 There are   120 symmetry adapted basis functions of A   symmetry.
   120 basis functions,   210 primitive gaussians,   120 cartesian basis functions
    21 alpha electrons       21 beta electrons
       nuclear repulsion energy       201.7566083700 Hartrees.
 NAtoms=   12 NActive=   12 NUniq=   12 SFac= 1.00D+00 NAtFMM=   60 NAOKFM=F Big=F
 Integral buffers will be    131072 words long.
 Regular integral format.
 Two-electron integral symmetry is turned on.
 One-electron integrals computed using PRISM.
 NBasis=   120 RedAO= T EigKep=  6.50D-04  NBF=   120
 NBsUse=   120 1.00D-06 EigRej= -1.00D+00 NBFU=   120
 ExpMin= 1.61D-01 ExpMax= 3.05D+03 ExpMxC= 4.57D+02 IAcc=3 IRadAn=         5 AccDes= 0.00D+00
 Harris functional with IExCor=  402 and IRadAn=       5 diagonalized for initial guess.
 HarFok:  IExCor=  402 AccDes= 0.00D+00 IRadAn=         5 IDoV= 1 UseB2=F ITyADJ=14
 ICtDFT=  3500011 ScaDFX=  1.000000  1.000000  1.000000  1.000000
 FoFCou: FMM=F IPFlag=           0 FMFlag=      100000 FMFlg1=           0
         NFxFlg=           0 DoJE=T BraDBF=F KetDBF=T FulRan=T
         wScrn=  0.000000 ICntrl=       500 IOpCl=  0 I1Cent=   200000004 NGrid=           0
         NMat0=    1 NMatS0=      1 NMatT0=    0 NMatD0=    1 NMtDS0=    0 NMtDT0=    0
 Petite list used in FoFCou.
 Keep R1 ints in memory in canonical form, NReq=30147728.
 Requested convergence on RMS density matrix=1.00D-08 within 128 cycles.
 Requested convergence on MAX density matrix=1.00D-06.
 Requested convergence on             energy=1.00D-06.
 No special actions if energy rises.
 Integral accuracy reduced to 1.0D-05 until final iterations.
 Initial convergence to 1.0D-05 achieved.  Increase integral accuracy.
 SCF Done:  E(RB3LYP) =  -232.226034560     A.U. after   12 cycles
            NFock= 12  Conv=0.88D-08     -V/T= 2.0114
 DoSCS=F DFT=T ScalE2(SS,OS)=  1.000000  1.000000
 ExpMin= 1.61D-01 ExpMax= 3.05D+03 ExpMxC= 4.57D+02 IAcc=3 IRadAn=         5 AccDes= 0.00D+00
 HarFok:  IExCor=  205 AccDes= 0.00D+00 IRadAn=         5 IDoV=-2 UseB2=F ITyADJ=14
 ICtDFT= 12500011 ScaDFX=  1.000000  1.000000  1.000000  1.000000
 Range of M.O.s used for correlation:     7   120
 NBasis=   120 NAE=    21 NBE=    21 NFC=     6 NFV=     0
 NROrb=    114 NOA=    15 NOB=    15 NVA=    99 NVB=    99
 Keep R1, R2, and R3 ints in memory in canonical form, NReq=84032236.
 Orbital symmetries:
       Occupied  (A) (A) (A) (A) (A) (A) (A) (A) (A) (A) (A) (A)
                 (A) (A) (A) (A) (A) (A) (A) (A) (A)
       Virtual   (A) (A) (A) (A) (A) (A) (A) (A) (A) (A) (A) (A)
                 (A) (A) (A) (A) (A) (A) (A) (A) (A) (A) (A) (A)
                 (A) (A) (A) (A) (A) (A) (A) (A) (A) (A) (A) (A)
                 (A) (A) (A) (A) (A) (A) (A) (A) (A) (A) (A) (A)
                 (A) (A) (A) (A) (A) (A) (A) (A) (A) (A) (A) (A)
                 (A) (A) (A) (A) (A) (A) (A) (A) (A) (A) (A) (A)
                 (A) (A) (A) (A) (A) (A) (A) (A) (A) (A) (A) (A)
                 (A) (A) (A) (A) (A) (A) (A) (A) (A) (A) (A) (A)
                 (A) (A) (A)
     4 initial guesses have been made.
 Convergence on wavefunction:    0.001000000000000
 Iteration     1 Dimension     4 NMult     0 NNew      4
 CISAX will form     4 AO SS matrices at one time.
 New state      1 was old state      2
 Iteration     2 Dimension     6 NMult     4 NNew      2
 Iteration     3 Dimension     8 NMult     6 NNew      2
 Iteration     4 Dimension    10 NMult     8 NNew      2
 Iteration     5 Dimension    12 NMult    10 NNew      2
 ***********************************************************************
 Excited states from <AA,BB:AA,BB> singles matrix:
 ***********************************************************************
 
 Ground to excited state transition densities written to RWF  633
 Ground to excited state transition electric dipole moments (Au):
       state          X           Y           Z        Dip. S.      Osc.
         1        -0.0108     -0.0188      0.0005      0.0005      0.0001
 Ground to excited state transition velocity dipole moments (Au):
       state          X           Y           Z        Dip. S.      Osc.
         1         0.0026      0.0044      0.0003      0.0000      0.0001
 Ground to excited state transition magnetic dipole moments (Au):
       state          X           Y           Z
         1         0.0018      0.0042     -0.0349
 Ground to excited state transition velocity quadrupole moments (Au):
       state          XX          YY          ZZ          XY          XZ          YZ
         1        -0.0003     -0.0032      0.0003     -0.0028     -0.0016     -0.0009
 <0|del|b> * <b|rxdel|0> + <0|del|b> * <b|delr+rdel|0>
 Rotatory Strengths (R) in cgs (10**-40 erg-esu-cm/Gauss)
       state          XX          YY          ZZ    R(velocity)    E-M Angle
         1         0.0270     -0.0113      0.0333      0.0163       90.00
 1/2[<0|r|b>*<b|rxdel|0> + (<0|rxdel|b>*<b|r|0>)*]
 Rotatory Strengths (R) in cgs (10**-40 erg-esu-cm/Gauss)
       state          XX          YY          ZZ     R(length)
         1         0.0140      0.0562      0.0129      0.0277
  1/2[<0|del|b>*<b|r|0> + (<0|r|b>*<b|del|0>)*] (Au)
       state          X           Y           Z        Dip. S.   Osc.(frdel)
         1        -0.0000     -0.0001      0.0000      0.0001      0.0001

 Excitation energies and oscillator strengths:
 
 Excited State   1:      Singlet-A      5.4655 eV  226.85 nm  f=0.0001  <S**2>=0.000
      20 -> 22        -0.49417
      21 -> 23         0.50399
 This state for optimization and/or second-order correction.
 Total Energy, E(TD-HF/TD-DFT) =  -232.025180527    
 Copying the excited state density for this state as the 1-particle RhoCI density.
 SavETr:  write IOETrn=   770 NScale= 10 NData=  16 NLR=1 NState=    1 LETran=      28.

 **********************************************************************

            Population analysis using the SCF Density.

 **********************************************************************

 Orbital symmetries:
       Occupied  (A) (A) (A) (A) (A) (A) (A) (A) (A) (A) (A) (A)
                 (A) (A) (A) (A) (A) (A) (A) (A) (A)
       Virtual   (A) (A) (A) (A) (A) (A) (A) (A) (A) (A) (A) (A)
                 (A) (A) (A) (A) (A) (A) (A) (A) (A) (A) (A) (A)
                 (A) (A) (A) (A) (A) (A) (A) (A) (A) (A) (A) (A)
                 (A) (A) (A) (A) (A) (A) (A) (A) (A) (A) (A) (A)
                 (A) (A) (A) (A) (A) (A) (A) (A) (A) (A) (A) (A)
                 (A) (A) (A) (A) (A) (A) (A) (A) (A) (A) (A) (A)
                 (A) (A) (A) (A) (A) (A) (A) (A) (A) (A) (A) (A)
                 (A) (A) (A) (A) (A) (A) (A) (A) (A) (A) (A) (A)
                 (A) (A) (A)
 The electronic state is 1-A.
 Alpha  occ. eigenvalues --  -10.20642 -10.19957 -10.19416 -10.19179 -10.18863
 Alpha  occ. eigenvalues --  -10.18799  -0.84661  -0.74439  -0.73348  -0.60121
 Alpha  occ. eigenvalues --   -0.58876  -0.50969  -0.45210  -0.44464  -0.41138
 Alpha  occ. eigenvalues --   -0.40416  -0.35954  -0.34579  -0.32097  -0.25097
 Alpha  occ. eigenvalues --   -0.24490
 Alpha virt. eigenvalues --   -0.00343   0.00160   0.06861   0.12558   0.13165
 Alpha virt. eigenvalues --    0.14847   0.16098   0.18202   0.19124   0.28817
 Alpha virt. eigenvalues --    0.30086   0.30365   0.32852   0.46344   0.52336
 Alpha virt. eigenvalues --    0.52596   0.53985   0.55352   0.59536   0.59621
 Alpha virt. eigenvalues --    0.60315   0.60444   0.60814   0.62831   0.64134
 Alpha virt. eigenvalues --    0.66195   0.66596   0.73757   0.76775   0.79415
 Alpha virt. eigenvalues --    0.81392   0.83078   0.83960   0.90678   0.92992
 Alpha virt. eigenvalues --    0.93313   0.94641   1.05531   1.09167   1.09239
 Alpha virt. eigenvalues --    1.10931   1.20700   1.26096   1.31854   1.35511
 Alpha virt. eigenvalues --    1.35859   1.41694   1.44061   1.46308   1.48505
 Alpha virt. eigenvalues --    1.69875   1.74153   1.76888   1.78842   1.87000
 Alpha virt. eigenvalues --    1.87768   1.96310   1.98307   1.98781   2.00419
 Alpha virt. eigenvalues --    2.03748   2.04149   2.08400   2.22537   2.23839
 Alpha virt. eigenvalues --    2.28012   2.32028   2.33259   2.38386   2.39414
 Alpha virt. eigenvalues --    2.40949   2.41537   2.45512   2.47946   2.49203
 Alpha virt. eigenvalues --    2.50525   2.53116   2.56675   2.57391   2.67217
 Alpha virt. eigenvalues --    2.71841   2.73264   2.77603   2.86974   2.98046
 Alpha virt. eigenvalues --    3.11002   3.17474   3.19268   3.25055   3.32034
 Alpha virt. eigenvalues --    3.43727   3.50052   3.85848   4.12668   4.15763
 Alpha virt. eigenvalues --    4.17773   4.43334   4.44637   4.80135
          Condensed to atoms (all electrons):
               1          2          3          4          5          6
     1  C    4.807930   0.537691  -0.034498  -0.037304  -0.035983   0.552365
     2  C    0.537691   4.815431   0.536045  -0.031803  -0.037905  -0.034979
     3  C   -0.034498   0.536045   4.857744   0.541517  -0.048268  -0.043901
     4  C   -0.037304  -0.031803   0.541517   4.819107   0.535229  -0.035975
     5  C   -0.035983  -0.037905  -0.048268   0.535229   4.834548   0.556430
     6  C    0.552365  -0.034979  -0.043901  -0.035975   0.556430   4.792420
     7  H    0.373183  -0.043162   0.004940   0.000232   0.004589  -0.040253
     8  H   -0.046116   0.005829   0.000635   0.005790  -0.044413   0.364122
     9  H    0.004006   0.000394   0.005078  -0.040431   0.363516  -0.036848
    10  H    0.000634   0.002363  -0.026160   0.351535  -0.046746   0.005081
    11  H    0.003100  -0.031958   0.351694  -0.040884   0.004202   0.000531
    12  H   -0.046387   0.371204  -0.038660   0.003683   0.000628   0.006056
               7          8          9         10         11         12
     1  C    0.373183  -0.046116   0.004006   0.000634   0.003100  -0.046387
     2  C   -0.043162   0.005829   0.000394   0.002363  -0.031958   0.371204
     3  C    0.004940   0.000635   0.005078  -0.026160   0.351694  -0.038660
     4  C    0.000232   0.005790  -0.040431   0.351535  -0.040884   0.003683
     5  C    0.004589  -0.044413   0.363516  -0.046746   0.004202   0.000628
     6  C   -0.040253   0.364122  -0.036848   0.005081   0.000531   0.006056
     7  H    0.623775  -0.006586  -0.000133   0.000013  -0.000122  -0.007640
     8  H   -0.006586   0.648431  -0.005994  -0.000272   0.000014  -0.000284
     9  H   -0.000133  -0.005994   0.632303  -0.008727  -0.000185   0.000012
    10  H    0.000013  -0.000272  -0.008727   0.639675  -0.004533  -0.000078
    11  H   -0.000122   0.000014  -0.000185  -0.004533   0.640599  -0.004071
    12  H   -0.007640  -0.000284   0.000012  -0.000078  -0.004071   0.625882
 Mulliken charges:
               1
     1  C   -0.078619
     2  C   -0.089149
     3  C   -0.106165
     4  C   -0.070695
     5  C   -0.085824
     6  C   -0.085048
     7  H    0.091163
     8  H    0.078844
     9  H    0.087009
    10  H    0.087215
    11  H    0.081614
    12  H    0.089655
 Sum of Mulliken charges =  -0.00000
 Mulliken charges with hydrogens summed into heavy atoms:
               1
     1  C    0.012544
     2  C    0.000506
     3  C   -0.024551
     4  C    0.016520
     5  C    0.001184
     6  C   -0.006204
 Electronic spatial extent (au):  <R**2>=            464.4722
 Charge=             -0.0000 electrons
 Dipole moment (field-independent basis, Debye):
    X=              0.1038    Y=             -0.2105    Z=              0.0733  Tot=              0.2459
 Quadrupole moment (field-independent basis, Debye-Ang):
   XX=            -30.7659   YY=            -32.7350   ZZ=            -38.8013
   XY=              0.4114   XZ=             -0.2174   YZ=              0.4599
 Traceless Quadrupole moment (field-independent basis, Debye-Ang):
   XX=              3.3348   YY=              1.3657   ZZ=             -4.7006
   XY=              0.4114   XZ=             -0.2174   YZ=              0.4599
 Octapole moment (field-independent basis, Debye-Ang**2):
  XXX=              1.4712  YYY=             -1.2883  ZZZ=              0.0561  XYY=              0.0147
  XXY=             -1.3155  XXZ=              0.4444  XZZ=              0.4703  YZZ=             -0.3333
  YYZ=              0.2765  XYZ=              0.1820
 Hexadecapole moment (field-independent basis, Debye-Ang**3):
 XXXX=           -276.4452 YYYY=           -275.5509 ZZZZ=            -40.5785 XXXY=              5.0898
 XXXZ=             -1.5999 YYYX=             -0.9368 YYYZ=              2.6380 ZZZX=             -0.1383
 ZZZY=              0.4253 XXYY=            -93.7170 XXZZ=            -63.3316 YYZZ=            -60.6404
 XXYZ=              1.1666 YYXZ=             -0.2214 ZZXY=              0.2557
 N-N= 2.017566083700D+02 E-N=-9.405292890229D+02  KE= 2.296002944895D+02
 1\1\GINC-DESKTOP-PRN5QE3\SP\RB3LYP TD-FC\6-31G(d,p)\C6H6\SHOHEI\10-Nov
 -2023\0\\# TD=(NStates=1) B3LYP/6-31G(d,p)\\ABSSPCT\\0,1\C,0,-0.265254
 0374,1.4050859977,-0.0104516063\C,0,1.0530094953,0.9251024095,0.001142
 5787\C,0,1.3096022381,-0.4676277081,0.0381399032\C,0,0.2700372346,-1.3
 800187997,-0.0147559138\C,0,-1.0518486623,-0.9248418292,0.0140304871\C
 ,0,-1.2927887912,0.463919688,-0.0176558708\H,0,-0.431940564,2.46150661
 57,0.0653070844\H,0,-2.3117729873,0.8265789662,0.0753657668\H,0,-1.900
 636601,-1.664312179,0.0171664679\H,0,0.1805289357,-2.5737036853,-0.107
 6690656\H,0,2.3969223666,-0.9726651313,-0.0892698194\H,0,1.7787531298,
 1.7135005915,-0.0945840632\\Version=EM64L-G16RevB.01\State=1-A\HF=-232
 .2260346\RMSD=8.751e-09\PG=C01 [X(C6H6)]\\@


 Discoveries are often made by not following instructions,
 by going off the main road, by trying the untried.
 -- Frank Tyger
 Job cpu time:       0 days  0 hours  3 minutes  8.3 seconds.
 Elapsed time:       0 days  0 hours  0 minutes 47.5 seconds.
 File lengths (MBytes):  RWF=    116 Int=      0 D2E=      0 Chk=      3 Scr=      1
 Normal termination of Gaussian 16 at Fri Nov 10 17:48:09 2023.
