 Entering Gaussian System, Link 0=g16
 Input=Geometry-8-.com
 Output=Geometry-8-.log
 Initial command:
 /home/shohei/gaussian/g16/l1.exe "/home/shohei/gaussian/scratch/Gau-20497.inp" -scrdir="/home/shohei/gaussian/scratch/"
 Entering Link 1 = /home/shohei/gaussian/g16/l1.exe PID=     20499.
  
 Copyright (c) 1988-2017, Gaussian, Inc.  All Rights Reserved.
  
 This is part of the Gaussian(R) 16 program.  It is based on
 the Gaussian(R) 09 system (copyright 2009, Gaussian, Inc.),
 the Gaussian(R) 03 system (copyright 2003, Gaussian, Inc.),
 the Gaussian(R) 98 system (copyright 1998, Gaussian, Inc.),
 the Gaussian(R) 94 system (copyright 1995, Gaussian, Inc.),
 the Gaussian 92(TM) system (copyright 1992, Gaussian, Inc.),
 the Gaussian 90(TM) system (copyright 1990, Gaussian, Inc.),
 the Gaussian 88(TM) system (copyright 1988, Gaussian, Inc.),
 the Gaussian 86(TM) system (copyright 1986, Carnegie Mellon
 University), and the Gaussian 82(TM) system (copyright 1983,
 Carnegie Mellon University). Gaussian is a federally registered
 trademark of Gaussian, Inc.
  
 This software contains proprietary and confidential information,
 including trade secrets, belonging to Gaussian, Inc.
  
 This software is provided under written license and may be
 used, copied, transmitted, or stored only in accord with that
 written license.
  
 The following legend is applicable only to US Government
 contracts under FAR:
  
                    RESTRICTED RIGHTS LEGEND
  
 Use, reproduction and disclosure by the US Government is
 subject to restrictions as set forth in subparagraphs (a)
 and (c) of the Commercial Computer Software - Restricted
 Rights clause in FAR 52.227-19.
  
 Gaussian, Inc.
 340 Quinnipiac St., Bldg. 40, Wallingford CT 06492
  
  
 ---------------------------------------------------------------
 Warning -- This program may not be used in any manner that
 competes with the business of Gaussian, Inc. or will provide
 assistance to any competitor of Gaussian, Inc.  The licensee
 of this program is prohibited from giving any competitor of
 Gaussian, Inc. access to this program.  By using this program,
 the user acknowledges that Gaussian, Inc. is engaged in the
 business of creating and licensing software in the field of
 computational chemistry and represents and warrants to the
 licensee that it is not a competitor of Gaussian, Inc. and that
 it will not use this program in any manner prohibited above.
 ---------------------------------------------------------------
  

 Cite this work as:
 Gaussian 16, Revision B.01,
 M. J. Frisch, G. W. Trucks, H. B. Schlegel, G. E. Scuseria, 
 M. A. Robb, J. R. Cheeseman, G. Scalmani, V. Barone, 
 G. A. Petersson, H. Nakatsuji, X. Li, M. Caricato, A. V. Marenich, 
 J. Bloino, B. G. Janesko, R. Gomperts, B. Mennucci, H. P. Hratchian, 
 J. V. Ortiz, A. F. Izmaylov, J. L. Sonnenberg, D. Williams-Young, 
 F. Ding, F. Lipparini, F. Egidi, J. Goings, B. Peng, A. Petrone, 
 T. Henderson, D. Ranasinghe, V. G. Zakrzewski, J. Gao, N. Rega, 
 G. Zheng, W. Liang, M. Hada, M. Ehara, K. Toyota, R. Fukuda, 
 J. Hasegawa, M. Ishida, T. Nakajima, Y. Honda, O. Kitao, H. Nakai, 
 T. Vreven, K. Throssell, J. A. Montgomery, Jr., J. E. Peralta, 
 F. Ogliaro, M. J. Bearpark, J. J. Heyd, E. N. Brothers, K. N. Kudin, 
 V. N. Staroverov, T. A. Keith, R. Kobayashi, J. Normand, 
 K. Raghavachari, A. P. Rendell, J. C. Burant, S. S. Iyengar, 
 J. Tomasi, M. Cossi, J. M. Millam, M. Klene, C. Adamo, R. Cammi, 
 J. W. Ochterski, R. L. Martin, K. Morokuma, O. Farkas, 
 J. B. Foresman, and D. J. Fox, Gaussian, Inc., Wallingford CT, 2016.
 
 ******************************************
 Gaussian 16:  EM64L-G16RevB.01 20-Dec-2017
                10-Nov-2023 
 ******************************************
 %nproc=4
 Will use up to    4 processors via shared memory.
 %Mem=2Gb
 ---------------------------------
 # TD=(NStates=1) B3LYP/6-31G(d,p)
 ---------------------------------
 1/38=1,172=1/1;
 2/12=2,17=6,18=5,40=1/2;
 3/5=1,6=6,7=101,11=9,25=1,30=1,74=-5/1,2,3,8;
 4//1;
 5/5=2,38=5/2;
 8/6=1,10=2,108=1/1;
 9/41=1,42=1,70=2/14;
 6/7=2,8=2,9=2,10=2/1;
 99/5=1,9=1/99;
 -------
 ABSSPCT
 -------
 Symbolic Z-matrix:
 Charge =  0 Multiplicity = 1
 6                    -0.30589   1.41838  -0.02691 
 6                     1.0527    0.89632  -0.04999 
 6                     1.37849  -0.51114   0.03501 
 6                     0.24765  -1.34318  -0.00038 
 6                    -1.03343  -0.92132   0.0244 
 6                    -1.31353   0.46036   0.03435 
 1                    -0.50265   2.48755  -0.046 
 1                    -2.35623   0.81548   0.00065 
 1                    -1.98706  -1.55861  -0.23742 
 1                     0.26661  -2.36714  -0.12819 
 1                     2.44707  -0.80087  -0.10685 
 1                     1.8268    1.41869   0.329 
 
                          Input orientation:                          
 ---------------------------------------------------------------------
 Center     Atomic      Atomic             Coordinates (Angstroms)
 Number     Number       Type             X           Y           Z
 ---------------------------------------------------------------------
      1          6           0       -0.305893    1.418383   -0.026913
      2          6           0        1.052703    0.896324   -0.049990
      3          6           0        1.378495   -0.511139    0.035009
      4          6           0        0.247646   -1.343181   -0.000384
      5          6           0       -1.033429   -0.921320    0.024396
      6          6           0       -1.313527    0.460362    0.034346
      7          1           0       -0.502649    2.487550   -0.046003
      8          1           0       -2.356234    0.815483    0.000649
      9          1           0       -1.987057   -1.558610   -0.237420
     10          1           0        0.266608   -2.367138   -0.128189
     11          1           0        2.447073   -0.800874   -0.106847
     12          1           0        1.826801    1.418686    0.328997
 ---------------------------------------------------------------------
                    Distance matrix (angstroms):
                    1          2          3          4          5
     1  C    0.000000
     2  C    1.455631   0.000000
     3  C    2.562040   1.447176   0.000000
     4  C    2.816619   2.380328   1.404409   0.000000
     5  C    2.450745   2.767906   2.446576   1.348975   0.000000
     6  C    1.391719   2.407534   2.861957   2.385631   1.409823
     7  H    1.087288   2.225114   3.540819   3.903783   3.450663
     8  H    2.137322   3.410271   3.963496   3.382310   2.183314
     9  H    3.425362   3.911773   3.535301   2.257541   1.176475
    10  H    3.829906   3.357714   2.169714   1.032076   1.950325
    11  H    3.536992   2.197267   1.116212   2.267799   3.485057
    12  H    2.162187   1.007830   2.002906   3.198458   3.708008
                    6          7          8          9         10
     6  C    0.000000
     7  H    2.184827   0.000000
     8  H    1.102036   2.496750   0.000000
     9  H    2.145634   4.314106   2.414391   0.000000
    10  H    3.243147   4.915944   4.126133   2.396801   0.000000
    11  H    3.968975   4.417951   5.069114   4.500302   2.684784
    12  H    3.296492   2.590256   4.239038   4.871409   4.120156
                   11         12
    11  H    0.000000
    12  H    2.345452   0.000000
 Stoichiometry    C6H6
 Framework group  C1[X(C6H6)]
 Deg. of freedom    30
 Full point group                 C1      NOp   1
 Largest Abelian subgroup         C1      NOp   1
 Largest concise Abelian subgroup C1      NOp   1
                         Standard orientation:                         
 ---------------------------------------------------------------------
 Center     Atomic      Atomic             Coordinates (Angstroms)
 Number     Number       Type             X           Y           Z
 ---------------------------------------------------------------------
      1          6           0        0.909202   -1.129821   -0.035315
      2          6           0       -0.538822   -1.275666   -0.063853
      3          6           0       -1.464114   -0.167029    0.031412
      4          6           0       -0.829433    1.085636    0.012007
      5          6           0        0.504232    1.285978    0.042572
      6          6           0        1.376866    0.178679    0.042140
      7          1           0        1.566686   -1.995365   -0.062586
      8          1           0        2.467816    0.331867    0.013049
      9          1           0        1.069057    2.287533   -0.206326
     10          1           0       -1.307441    1.992611   -0.106683
     11          1           0       -2.548235   -0.388232   -0.115823
     12          1           0       -0.995474   -2.095080    0.304591
 ---------------------------------------------------------------------
 Rotational constants (GHZ):           5.7602690           5.4601169           2.8115249
 Standard basis: 6-31G(d,p) (6D, 7F)
 There are   120 symmetry adapted cartesian basis functions of A   symmetry.
 There are   120 symmetry adapted basis functions of A   symmetry.
   120 basis functions,   210 primitive gaussians,   120 cartesian basis functions
    21 alpha electrons       21 beta electrons
       nuclear repulsion energy       202.0594127193 Hartrees.
 NAtoms=   12 NActive=   12 NUniq=   12 SFac= 1.00D+00 NAtFMM=   60 NAOKFM=F Big=F
 Integral buffers will be    131072 words long.
 Regular integral format.
 Two-electron integral symmetry is turned on.
 One-electron integrals computed using PRISM.
 NBasis=   120 RedAO= T EigKep=  8.40D-04  NBF=   120
 NBsUse=   120 1.00D-06 EigRej= -1.00D+00 NBFU=   120
 ExpMin= 1.61D-01 ExpMax= 3.05D+03 ExpMxC= 4.57D+02 IAcc=3 IRadAn=         5 AccDes= 0.00D+00
 Harris functional with IExCor=  402 and IRadAn=       5 diagonalized for initial guess.
 HarFok:  IExCor=  402 AccDes= 0.00D+00 IRadAn=         5 IDoV= 1 UseB2=F ITyADJ=14
 ICtDFT=  3500011 ScaDFX=  1.000000  1.000000  1.000000  1.000000
 FoFCou: FMM=F IPFlag=           0 FMFlag=      100000 FMFlg1=           0
         NFxFlg=           0 DoJE=T BraDBF=F KetDBF=T FulRan=T
         wScrn=  0.000000 ICntrl=       500 IOpCl=  0 I1Cent=   200000004 NGrid=           0
         NMat0=    1 NMatS0=      1 NMatT0=    0 NMatD0=    1 NMtDS0=    0 NMtDT0=    0
 Petite list used in FoFCou.
 Keep R1 ints in memory in canonical form, NReq=30147728.
 Requested convergence on RMS density matrix=1.00D-08 within 128 cycles.
 Requested convergence on MAX density matrix=1.00D-06.
 Requested convergence on             energy=1.00D-06.
 No special actions if energy rises.
 Integral accuracy reduced to 1.0D-05 until final iterations.
 Initial convergence to 1.0D-05 achieved.  Increase integral accuracy.
 SCF Done:  E(RB3LYP) =  -232.211623586     A.U. after   13 cycles
            NFock= 13  Conv=0.57D-08     -V/T= 2.0103
 DoSCS=F DFT=T ScalE2(SS,OS)=  1.000000  1.000000
 ExpMin= 1.61D-01 ExpMax= 3.05D+03 ExpMxC= 4.57D+02 IAcc=3 IRadAn=         5 AccDes= 0.00D+00
 HarFok:  IExCor=  205 AccDes= 0.00D+00 IRadAn=         5 IDoV=-2 UseB2=F ITyADJ=14
 ICtDFT= 12500011 ScaDFX=  1.000000  1.000000  1.000000  1.000000
 Range of M.O.s used for correlation:     7   120
 NBasis=   120 NAE=    21 NBE=    21 NFC=     6 NFV=     0
 NROrb=    114 NOA=    15 NOB=    15 NVA=    99 NVB=    99
 Keep R1, R2, and R3 ints in memory in canonical form, NReq=84032236.
 Orbital symmetries:
       Occupied  (A) (A) (A) (A) (A) (A) (A) (A) (A) (A) (A) (A)
                 (A) (A) (A) (A) (A) (A) (A) (A) (A)
       Virtual   (A) (A) (A) (A) (A) (A) (A) (A) (A) (A) (A) (A)
                 (A) (A) (A) (A) (A) (A) (A) (A) (A) (A) (A) (A)
                 (A) (A) (A) (A) (A) (A) (A) (A) (A) (A) (A) (A)
                 (A) (A) (A) (A) (A) (A) (A) (A) (A) (A) (A) (A)
                 (A) (A) (A) (A) (A) (A) (A) (A) (A) (A) (A) (A)
                 (A) (A) (A) (A) (A) (A) (A) (A) (A) (A) (A) (A)
                 (A) (A) (A) (A) (A) (A) (A) (A) (A) (A) (A) (A)
                 (A) (A) (A) (A) (A) (A) (A) (A) (A) (A) (A) (A)
                 (A) (A) (A)
     4 initial guesses have been made.
 Convergence on wavefunction:    0.001000000000000
 Iteration     1 Dimension     4 NMult     0 NNew      4
 CISAX will form     4 AO SS matrices at one time.
 New state      1 was old state      3
 Iteration     2 Dimension     6 NMult     4 NNew      2
 Iteration     3 Dimension     8 NMult     6 NNew      2
 Iteration     4 Dimension    10 NMult     8 NNew      2
 ***********************************************************************
 Excited states from <AA,BB:AA,BB> singles matrix:
 ***********************************************************************
 
 Ground to excited state transition densities written to RWF  633
 Ground to excited state transition electric dipole moments (Au):
       state          X           Y           Z        Dip. S.      Osc.
         1        -0.0022      0.0179     -0.0005      0.0003      0.0000
 Ground to excited state transition velocity dipole moments (Au):
       state          X           Y           Z        Dip. S.      Osc.
         1         0.0026     -0.0041     -0.0000      0.0000      0.0001
 Ground to excited state transition magnetic dipole moments (Au):
       state          X           Y           Z
         1        -0.0108      0.0116     -0.0448
 Ground to excited state transition velocity quadrupole moments (Au):
       state          XX          YY          ZZ          XY          XZ          YZ
         1        -0.0102      0.0025      0.0017      0.0013      0.0073      0.0029
 <0|del|b> * <b|rxdel|0> + <0|del|b> * <b|delr+rdel|0>
 Rotatory Strengths (R) in cgs (10**-40 erg-esu-cm/Gauss)
       state          XX          YY          ZZ    R(velocity)    E-M Angle
         1        -0.0314     -0.0377     -0.2080     -0.0924       90.00
 1/2[<0|r|b>*<b|rxdel|0> + (<0|rxdel|b>*<b|r|0>)*]
 Rotatory Strengths (R) in cgs (10**-40 erg-esu-cm/Gauss)
       state          XX          YY          ZZ     R(length)
         1        -0.0172     -0.1467     -0.0157     -0.0599
  1/2[<0|del|b>*<b|r|0> + (<0|r|b>*<b|del|0>)*] (Au)
       state          X           Y           Z        Dip. S.   Osc.(frdel)
         1        -0.0000     -0.0001      0.0000      0.0001      0.0001

 Excitation energies and oscillator strengths:
 
 Excited State   1:      Singlet-A      5.2258 eV  237.25 nm  f=0.0000  <S**2>=0.000
      20 -> 22         0.49146
      21 -> 23         0.50652
 This state for optimization and/or second-order correction.
 Total Energy, E(TD-HF/TD-DFT) =  -232.019579512    
 Copying the excited state density for this state as the 1-particle RhoCI density.
 SavETr:  write IOETrn=   770 NScale= 10 NData=  16 NLR=1 NState=    1 LETran=      28.

 **********************************************************************

            Population analysis using the SCF Density.

 **********************************************************************

 Orbital symmetries:
       Occupied  (A) (A) (A) (A) (A) (A) (A) (A) (A) (A) (A) (A)
                 (A) (A) (A) (A) (A) (A) (A) (A) (A)
       Virtual   (A) (A) (A) (A) (A) (A) (A) (A) (A) (A) (A) (A)
                 (A) (A) (A) (A) (A) (A) (A) (A) (A) (A) (A) (A)
                 (A) (A) (A) (A) (A) (A) (A) (A) (A) (A) (A) (A)
                 (A) (A) (A) (A) (A) (A) (A) (A) (A) (A) (A) (A)
                 (A) (A) (A) (A) (A) (A) (A) (A) (A) (A) (A) (A)
                 (A) (A) (A) (A) (A) (A) (A) (A) (A) (A) (A) (A)
                 (A) (A) (A) (A) (A) (A) (A) (A) (A) (A) (A) (A)
                 (A) (A) (A) (A) (A) (A) (A) (A) (A) (A) (A) (A)
                 (A) (A) (A)
 The electronic state is 1-A.
 Alpha  occ. eigenvalues --  -10.19892 -10.19591 -10.19300 -10.19010 -10.18662
 Alpha  occ. eigenvalues --  -10.18175  -0.84417  -0.74280  -0.73666  -0.60188
 Alpha  occ. eigenvalues --   -0.59443  -0.51514  -0.46280  -0.43758  -0.42242
 Alpha  occ. eigenvalues --   -0.40362  -0.35603  -0.34281  -0.32659  -0.25009
 Alpha  occ. eigenvalues --   -0.23911
 Alpha virt. eigenvalues --   -0.01251  -0.00065   0.08267   0.13743   0.14195
 Alpha virt. eigenvalues --    0.14926   0.17663   0.18484   0.19291   0.26703
 Alpha virt. eigenvalues --    0.30031   0.30908   0.33021   0.45181   0.49332
 Alpha virt. eigenvalues --    0.52801   0.54288   0.56744   0.58854   0.59643
 Alpha virt. eigenvalues --    0.60256   0.60522   0.62602   0.63671   0.64197
 Alpha virt. eigenvalues --    0.66194   0.67487   0.73587   0.77409   0.79312
 Alpha virt. eigenvalues --    0.82222   0.84170   0.86653   0.91325   0.92458
 Alpha virt. eigenvalues --    0.93243   0.96357   1.00385   1.06783   1.08129
 Alpha virt. eigenvalues --    1.11548   1.14317   1.21297   1.26474   1.33285
 Alpha virt. eigenvalues --    1.38008   1.39576   1.43593   1.48592   1.60457
 Alpha virt. eigenvalues --    1.65472   1.73382   1.79224   1.83414   1.84402
 Alpha virt. eigenvalues --    1.89006   1.93089   1.97105   2.00163   2.04344
 Alpha virt. eigenvalues --    2.04610   2.07810   2.09972   2.20157   2.25361
 Alpha virt. eigenvalues --    2.30292   2.33984   2.36005   2.39943   2.41350
 Alpha virt. eigenvalues --    2.42168   2.43510   2.45660   2.48858   2.49939
 Alpha virt. eigenvalues --    2.53757   2.56062   2.60042   2.65071   2.68125
 Alpha virt. eigenvalues --    2.73501   2.74955   2.79591   2.95628   3.02651
 Alpha virt. eigenvalues --    3.12707   3.16964   3.26871   3.30961   3.36620
 Alpha virt. eigenvalues --    3.53996   3.61823   3.86249   4.12033   4.17095
 Alpha virt. eigenvalues --    4.17452   4.43183   4.45242   4.80058
          Condensed to atoms (all electrons):
               1          2          3          4          5          6
     1  C    4.832130   0.506921  -0.037183  -0.036289  -0.042095   0.563477
     2  C    0.506921   4.894575   0.510364  -0.026424  -0.048551  -0.026891
     3  C   -0.037183   0.510364   4.883748   0.539546  -0.039001  -0.034922
     4  C   -0.036289  -0.026424   0.539546   4.753984   0.566117  -0.038334
     5  C   -0.042095  -0.048551  -0.039001   0.566117   4.839402   0.526507
     6  C    0.563477  -0.026891  -0.034922  -0.038334   0.526507   4.802142
     7  H    0.372768  -0.040085   0.003477   0.000148   0.004774  -0.039894
     8  H   -0.047920   0.005773   0.000502   0.006186  -0.040991   0.362318
     9  H    0.004414   0.000150   0.003742  -0.033675   0.362963  -0.042609
    10  H    0.000781   0.006486  -0.050388   0.368062  -0.051850   0.007867
    11  H    0.003368  -0.039681   0.370708  -0.033129   0.003416   0.000197
    12  H   -0.038334   0.366132  -0.048813   0.004779   0.001870   0.003926
               7          8          9         10         11         12
     1  C    0.372768  -0.047920   0.004414   0.000781   0.003368  -0.038334
     2  C   -0.040085   0.005773   0.000150   0.006486  -0.039681   0.366132
     3  C    0.003477   0.000502   0.003742  -0.050388   0.370708  -0.048813
     4  C    0.000148   0.006186  -0.033675   0.368062  -0.033129   0.004779
     5  C    0.004774  -0.040991   0.362963  -0.051850   0.003416   0.001870
     6  C   -0.039894   0.362318  -0.042609   0.007867   0.000197   0.003926
     7  H    0.615518  -0.006265  -0.000180   0.000018  -0.000113  -0.003807
     8  H   -0.006265   0.648147  -0.006715  -0.000310   0.000011  -0.000215
     9  H   -0.000180  -0.006715   0.632869  -0.009057  -0.000088   0.000014
    10  H    0.000018  -0.000310  -0.009057   0.655916  -0.004663  -0.000346
    11  H   -0.000113   0.000011  -0.000088  -0.004663   0.604270  -0.004735
    12  H   -0.003807  -0.000215   0.000014  -0.000346  -0.004735   0.628845
 Mulliken charges:
               1
     1  C   -0.082036
     2  C   -0.108770
     3  C   -0.101778
     4  C   -0.070971
     5  C   -0.082561
     6  C   -0.083782
     7  H    0.093642
     8  H    0.079480
     9  H    0.088171
    10  H    0.077483
    11  H    0.100440
    12  H    0.090684
 Sum of Mulliken charges =  -0.00000
 Mulliken charges with hydrogens summed into heavy atoms:
               1
     1  C    0.011605
     2  C   -0.018086
     3  C   -0.001338
     4  C    0.006512
     5  C    0.005610
     6  C   -0.004303
 Electronic spatial extent (au):  <R**2>=            462.5623
 Charge=             -0.0000 electrons
 Dipole moment (field-independent basis, Debye):
    X=              0.0768    Y=              0.0211    Z=             -0.0944  Tot=              0.1235
 Quadrupole moment (field-independent basis, Debye-Ang):
   XX=            -31.2771   YY=            -32.1967   ZZ=            -38.4615
   XY=              0.2151   XZ=             -0.1692   YZ=             -0.9519
 Traceless Quadrupole moment (field-independent basis, Debye-Ang):
   XX=              2.7013   YY=              1.7817   ZZ=             -4.4830
   XY=              0.2151   XZ=             -0.1692   YZ=             -0.9519
 Octapole moment (field-independent basis, Debye-Ang**2):
  XXX=             -1.1558  YYY=              0.9880  ZZZ=              0.0162  XYY=              1.6742
  XXY=             -1.6124  XXZ=             -0.8982  XZZ=             -0.1636  YZZ=             -0.0030
  YYZ=             -0.2442  XYZ=              0.3413
 Hexadecapole moment (field-independent basis, Debye-Ang**3):
 XXXX=           -278.2184 YYYY=           -273.9050 ZZZZ=            -41.1288 XXXY=              3.0343
 XXXZ=              1.3168 YYYX=             -1.9942 YYYZ=             -5.9353 ZZZX=             -0.1957
 ZZZY=             -1.1417 XXYY=            -91.0265 XXZZ=            -62.3479 YYZZ=            -59.2298
 XXYZ=             -1.1240 YYXZ=             -2.2589 ZZXY=              0.0353
 N-N= 2.020594127193D+02 E-N=-9.413276520175D+02  KE= 2.298484911311D+02
 1\1\GINC-DESKTOP-PRN5QE3\SP\RB3LYP TD-FC\6-31G(d,p)\C6H6\SHOHEI\10-Nov
 -2023\0\\# TD=(NStates=1) B3LYP/6-31G(d,p)\\ABSSPCT\\0,1\C,0,-0.305893
 0794,1.4183827665,-0.0269128489\C,0,1.0527026754,0.8963240148,-0.04998
 9724\C,0,1.3784948386,-0.5111388212,0.0350094708\C,0,0.2476459528,-1.3
 431809133,-0.0003843597\C,0,-1.0334285472,-0.9213199435,0.0243959877\C
 ,0,-1.3135270901,0.4603624495,0.0343460163\H,0,-0.5026486288,2.4875497
 508,-0.0460026351\H,0,-2.356233852,0.8154826694,0.0006490511\H,0,-1.98
 70568347,-1.5586095934,-0.2374195868\H,0,0.2666079961,-2.3671379497,-0
 .1281894103\H,0,2.4470729022,-0.8008738153,-0.1068471796\H,0,1.8268005
 05,1.418686292,0.3289967482\\Version=EM64L-G16RevB.01\State=1-A\HF=-23
 2.2116236\RMSD=5.725e-09\PG=C01 [X(C6H6)]\\@


 THERE IS MORE TO LIFE THAN INCREASING ITS SPEED.

                                       -- GANDHI
 Job cpu time:       0 days  0 hours  3 minutes  1.7 seconds.
 Elapsed time:       0 days  0 hours  0 minutes 46.2 seconds.
 File lengths (MBytes):  RWF=    116 Int=      0 D2E=      0 Chk=      3 Scr=      1
 Normal termination of Gaussian 16 at Fri Nov 10 16:07:29 2023.
