 Entering Gaussian System, Link 0=g16
 Input=Geometry-50-.com
 Output=Geometry-50-.log
 Initial command:
 /home/shohei/gaussian/g16/l1.exe "/home/shohei/gaussian/scratch/Gau-28152.inp" -scrdir="/home/shohei/gaussian/scratch/"
 Entering Link 1 = /home/shohei/gaussian/g16/l1.exe PID=     28154.
  
 Copyright (c) 1988-2017, Gaussian, Inc.  All Rights Reserved.
  
 This is part of the Gaussian(R) 16 program.  It is based on
 the Gaussian(R) 09 system (copyright 2009, Gaussian, Inc.),
 the Gaussian(R) 03 system (copyright 2003, Gaussian, Inc.),
 the Gaussian(R) 98 system (copyright 1998, Gaussian, Inc.),
 the Gaussian(R) 94 system (copyright 1995, Gaussian, Inc.),
 the Gaussian 92(TM) system (copyright 1992, Gaussian, Inc.),
 the Gaussian 90(TM) system (copyright 1990, Gaussian, Inc.),
 the Gaussian 88(TM) system (copyright 1988, Gaussian, Inc.),
 the Gaussian 86(TM) system (copyright 1986, Carnegie Mellon
 University), and the Gaussian 82(TM) system (copyright 1983,
 Carnegie Mellon University). Gaussian is a federally registered
 trademark of Gaussian, Inc.
  
 This software contains proprietary and confidential information,
 including trade secrets, belonging to Gaussian, Inc.
  
 This software is provided under written license and may be
 used, copied, transmitted, or stored only in accord with that
 written license.
  
 The following legend is applicable only to US Government
 contracts under FAR:
  
                    RESTRICTED RIGHTS LEGEND
  
 Use, reproduction and disclosure by the US Government is
 subject to restrictions as set forth in subparagraphs (a)
 and (c) of the Commercial Computer Software - Restricted
 Rights clause in FAR 52.227-19.
  
 Gaussian, Inc.
 340 Quinnipiac St., Bldg. 40, Wallingford CT 06492
  
  
 ---------------------------------------------------------------
 Warning -- This program may not be used in any manner that
 competes with the business of Gaussian, Inc. or will provide
 assistance to any competitor of Gaussian, Inc.  The licensee
 of this program is prohibited from giving any competitor of
 Gaussian, Inc. access to this program.  By using this program,
 the user acknowledges that Gaussian, Inc. is engaged in the
 business of creating and licensing software in the field of
 computational chemistry and represents and warrants to the
 licensee that it is not a competitor of Gaussian, Inc. and that
 it will not use this program in any manner prohibited above.
 ---------------------------------------------------------------
  

 Cite this work as:
 Gaussian 16, Revision B.01,
 M. J. Frisch, G. W. Trucks, H. B. Schlegel, G. E. Scuseria, 
 M. A. Robb, J. R. Cheeseman, G. Scalmani, V. Barone, 
 G. A. Petersson, H. Nakatsuji, X. Li, M. Caricato, A. V. Marenich, 
 J. Bloino, B. G. Janesko, R. Gomperts, B. Mennucci, H. P. Hratchian, 
 J. V. Ortiz, A. F. Izmaylov, J. L. Sonnenberg, D. Williams-Young, 
 F. Ding, F. Lipparini, F. Egidi, J. Goings, B. Peng, A. Petrone, 
 T. Henderson, D. Ranasinghe, V. G. Zakrzewski, J. Gao, N. Rega, 
 G. Zheng, W. Liang, M. Hada, M. Ehara, K. Toyota, R. Fukuda, 
 J. Hasegawa, M. Ishida, T. Nakajima, Y. Honda, O. Kitao, H. Nakai, 
 T. Vreven, K. Throssell, J. A. Montgomery, Jr., J. E. Peralta, 
 F. Ogliaro, M. J. Bearpark, J. J. Heyd, E. N. Brothers, K. N. Kudin, 
 V. N. Staroverov, T. A. Keith, R. Kobayashi, J. Normand, 
 K. Raghavachari, A. P. Rendell, J. C. Burant, S. S. Iyengar, 
 J. Tomasi, M. Cossi, J. M. Millam, M. Klene, C. Adamo, R. Cammi, 
 J. W. Ochterski, R. L. Martin, K. Morokuma, O. Farkas, 
 J. B. Foresman, and D. J. Fox, Gaussian, Inc., Wallingford CT, 2016.
 
 ******************************************
 Gaussian 16:  EM64L-G16RevB.01 20-Dec-2017
                10-Nov-2023 
 ******************************************
 %nproc=4
 Will use up to    4 processors via shared memory.
 %Mem=2Gb
 ---------------------------------
 # TD=(NStates=1) B3LYP/6-31G(d,p)
 ---------------------------------
 1/38=1,172=1/1;
 2/12=2,17=6,18=5,40=1/2;
 3/5=1,6=6,7=101,11=9,25=1,30=1,74=-5/1,2,3,8;
 4//1;
 5/5=2,38=5/2;
 8/6=1,10=2,108=1/1;
 9/41=1,42=1,70=2/14;
 6/7=2,8=2,9=2,10=2/1;
 99/5=1,9=1/99;
 -------
 ABSSPCT
 -------
 Symbolic Z-matrix:
 Charge =  0 Multiplicity = 1
 6                    -0.25255   1.37182  -0.06253 
 6                     1.09799   0.92898  -0.03253 
 6                     1.32929  -0.45636   0.10228 
 6                     0.26084  -1.41015  -0.0713 
 6                    -1.05779  -0.91502   0.02179 
 6                    -1.3392    0.49491   0.04979 
 1                    -0.64072   2.43924   0.05341 
 1                    -2.46917   0.73003   0.12327 
 1                    -2.00485  -1.65497  -0.08928 
 1                     0.33206  -2.45645  -0.14593 
 1                     2.32262  -0.75463   0.0314 
 1                     1.99235   1.5181    0.00799 
 
                          Input orientation:                          
 ---------------------------------------------------------------------
 Center     Atomic      Atomic             Coordinates (Angstroms)
 Number     Number       Type             X           Y           Z
 ---------------------------------------------------------------------
      1          6           0       -0.252553    1.371818   -0.062534
      2          6           0        1.097993    0.928980   -0.032526
      3          6           0        1.329292   -0.456361    0.102282
      4          6           0        0.260838   -1.410150   -0.071305
      5          6           0       -1.057789   -0.915022    0.021791
      6          6           0       -1.339199    0.494907    0.049786
      7          1           0       -0.640717    2.439244    0.053409
      8          1           0       -2.469171    0.730026    0.123270
      9          1           0       -2.004852   -1.654966   -0.089276
     10          1           0        0.332058   -2.456453   -0.145932
     11          1           0        2.322617   -0.754630    0.031401
     12          1           0        1.992354    1.518100    0.007992
 ---------------------------------------------------------------------
                    Distance matrix (angstroms):
                    1          2          3          4          5
     1  C    0.000000
     2  C    1.421612   0.000000
     3  C    2.423146   1.410972   0.000000
     4  C    2.828956   2.484725   1.442720   0.000000
     5  C    2.425933   2.837374   2.432078   1.411593   0.000000
     6  C    1.400853   2.476914   2.833463   2.490788   1.438011
     7  H    1.141715   2.304647   3.502550   3.955527   3.380244
     8  H    2.315128   3.576104   3.979482   3.474358   2.169903
     9  H    3.497526   4.038273   3.548220   2.278949   1.206972
    10  H    3.873549   3.472848   2.248656   1.051376   2.082262
    11  H    3.340973   2.082866   1.039559   2.165915   3.384222
    12  H    2.250773   1.071720   2.084955   3.402805   3.901748
                    6          7          8          9         10
     6  C    0.000000
     7  H    2.065996   0.000000
     8  H    1.156511   2.503908   0.000000
     9  H    2.254858   4.317845   2.439048   0.000000
    10  H    3.397341   4.995386   4.251235   2.471181   0.000000
    11  H    3.869183   4.356910   5.017357   4.421782   2.624876
    12  H    3.485386   2.789916   4.532058   5.104455   4.310144
                   11         12
    11  H    0.000000
    12  H    2.296720   0.000000
 Stoichiometry    C6H6
 Framework group  C1[X(C6H6)]
 Deg. of freedom    30
 Full point group                 C1      NOp   1
 Largest Abelian subgroup         C1      NOp   1
 Largest concise Abelian subgroup C1      NOp   1
                         Standard orientation:                         
 ---------------------------------------------------------------------
 Center     Atomic      Atomic             Coordinates (Angstroms)
 Number     Number       Type             X           Y           Z
 ---------------------------------------------------------------------
      1          6           0       -0.061014   -1.394249   -0.072907
      2          6           0       -1.281254   -0.665704   -0.038033
      3          6           0       -1.202525    0.735626    0.106587
      4          6           0        0.049425    1.432529   -0.061900
      5          6           0        1.227014    0.659127    0.026012
      6          6           0        1.191739   -0.778339    0.043954
      7          1           0        0.083097   -2.521663    0.035185
      8          1           0        2.242419   -1.256504    0.114293
      9          1           0        2.313540    1.173652   -0.081260
     10          1           0        0.209864    2.469406   -0.129252
     11          1           0       -2.106022    1.245353    0.039100
     12          1           0       -2.283212   -1.044182   -0.000346
 ---------------------------------------------------------------------
 Rotational constants (GHZ):           5.5672720           5.4458197           2.7628794
 Standard basis: 6-31G(d,p) (6D, 7F)
 There are   120 symmetry adapted cartesian basis functions of A   symmetry.
 There are   120 symmetry adapted basis functions of A   symmetry.
   120 basis functions,   210 primitive gaussians,   120 cartesian basis functions
    21 alpha electrons       21 beta electrons
       nuclear repulsion energy       199.9588146617 Hartrees.
 NAtoms=   12 NActive=   12 NUniq=   12 SFac= 1.00D+00 NAtFMM=   60 NAOKFM=F Big=F
 Integral buffers will be    131072 words long.
 Regular integral format.
 Two-electron integral symmetry is turned on.
 One-electron integrals computed using PRISM.
 NBasis=   120 RedAO= T EigKep=  9.00D-04  NBF=   120
 NBsUse=   120 1.00D-06 EigRej= -1.00D+00 NBFU=   120
 ExpMin= 1.61D-01 ExpMax= 3.05D+03 ExpMxC= 4.57D+02 IAcc=3 IRadAn=         5 AccDes= 0.00D+00
 Harris functional with IExCor=  402 and IRadAn=       5 diagonalized for initial guess.
 HarFok:  IExCor=  402 AccDes= 0.00D+00 IRadAn=         5 IDoV= 1 UseB2=F ITyADJ=14
 ICtDFT=  3500011 ScaDFX=  1.000000  1.000000  1.000000  1.000000
 FoFCou: FMM=F IPFlag=           0 FMFlag=      100000 FMFlg1=           0
         NFxFlg=           0 DoJE=T BraDBF=F KetDBF=T FulRan=T
         wScrn=  0.000000 ICntrl=       500 IOpCl=  0 I1Cent=   200000004 NGrid=           0
         NMat0=    1 NMatS0=      1 NMatT0=    0 NMatD0=    1 NMtDS0=    0 NMtDT0=    0
 Petite list used in FoFCou.
 Keep R1 ints in memory in canonical form, NReq=30147728.
 Requested convergence on RMS density matrix=1.00D-08 within 128 cycles.
 Requested convergence on MAX density matrix=1.00D-06.
 Requested convergence on             energy=1.00D-06.
 No special actions if energy rises.
 Integral accuracy reduced to 1.0D-05 until final iterations.
 Initial convergence to 1.0D-05 achieved.  Increase integral accuracy.
 SCF Done:  E(RB3LYP) =  -232.221490349     A.U. after   13 cycles
            NFock= 13  Conv=0.27D-08     -V/T= 2.0120
 DoSCS=F DFT=T ScalE2(SS,OS)=  1.000000  1.000000
 ExpMin= 1.61D-01 ExpMax= 3.05D+03 ExpMxC= 4.57D+02 IAcc=3 IRadAn=         5 AccDes= 0.00D+00
 HarFok:  IExCor=  205 AccDes= 0.00D+00 IRadAn=         5 IDoV=-2 UseB2=F ITyADJ=14
 ICtDFT= 12500011 ScaDFX=  1.000000  1.000000  1.000000  1.000000
 Range of M.O.s used for correlation:     7   120
 NBasis=   120 NAE=    21 NBE=    21 NFC=     6 NFV=     0
 NROrb=    114 NOA=    15 NOB=    15 NVA=    99 NVB=    99
 Keep R1, R2, and R3 ints in memory in canonical form, NReq=84032236.
 Orbital symmetries:
       Occupied  (A) (A) (A) (A) (A) (A) (A) (A) (A) (A) (A) (A)
                 (A) (A) (A) (A) (A) (A) (A) (A) (A)
       Virtual   (A) (A) (A) (A) (A) (A) (A) (A) (A) (A) (A) (A)
                 (A) (A) (A) (A) (A) (A) (A) (A) (A) (A) (A) (A)
                 (A) (A) (A) (A) (A) (A) (A) (A) (A) (A) (A) (A)
                 (A) (A) (A) (A) (A) (A) (A) (A) (A) (A) (A) (A)
                 (A) (A) (A) (A) (A) (A) (A) (A) (A) (A) (A) (A)
                 (A) (A) (A) (A) (A) (A) (A) (A) (A) (A) (A) (A)
                 (A) (A) (A) (A) (A) (A) (A) (A) (A) (A) (A) (A)
                 (A) (A) (A) (A) (A) (A) (A) (A) (A) (A) (A) (A)
                 (A) (A) (A)
     4 initial guesses have been made.
 Convergence on wavefunction:    0.001000000000000
 Iteration     1 Dimension     4 NMult     0 NNew      4
 CISAX will form     4 AO SS matrices at one time.
 Iteration     2 Dimension     6 NMult     4 NNew      2
 Iteration     3 Dimension     8 NMult     6 NNew      2
 Iteration     4 Dimension    10 NMult     8 NNew      2
 ***********************************************************************
 Excited states from <AA,BB:AA,BB> singles matrix:
 ***********************************************************************
 
 Ground to excited state transition densities written to RWF  633
 Ground to excited state transition electric dipole moments (Au):
       state          X           Y           Z        Dip. S.      Osc.
         1        -0.0056     -0.0407      0.0042      0.0017      0.0002
 Ground to excited state transition velocity dipole moments (Au):
       state          X           Y           Z        Dip. S.      Osc.
         1        -0.0002      0.0088     -0.0011      0.0001      0.0003
 Ground to excited state transition magnetic dipole moments (Au):
       state          X           Y           Z
         1        -0.0092      0.0153     -0.0197
 Ground to excited state transition velocity quadrupole moments (Au):
       state          XX          YY          ZZ          XY          XZ          YZ
         1        -0.0032      0.0095     -0.0015      0.0017     -0.0172     -0.0131
 <0|del|b> * <b|rxdel|0> + <0|del|b> * <b|delr+rdel|0>
 Rotatory Strengths (R) in cgs (10**-40 erg-esu-cm/Gauss)
       state          XX          YY          ZZ    R(velocity)    E-M Angle
         1         0.5600      0.0537     -0.0318      0.1940       47.64
 1/2[<0|r|b>*<b|rxdel|0> + (<0|rxdel|b>*<b|r|0>)*]
 Rotatory Strengths (R) in cgs (10**-40 erg-esu-cm/Gauss)
       state          XX          YY          ZZ     R(length)
         1        -0.0366      0.4404      0.0590      0.1543
  1/2[<0|del|b>*<b|r|0> + (<0|r|b>*<b|del|0>)*] (Au)
       state          X           Y           Z        Dip. S.   Osc.(frdel)
         1         0.0000     -0.0004     -0.0000      0.0004      0.0002

 Excitation energies and oscillator strengths:
 
 Excited State   1:      Singlet-A      5.2556 eV  235.91 nm  f=0.0002  <S**2>=0.000
      20 -> 22         0.30975
      20 -> 23        -0.38869
      21 -> 22         0.40797
      21 -> 23         0.29346
 This state for optimization and/or second-order correction.
 Total Energy, E(TD-HF/TD-DFT) =  -232.028349215    
 Copying the excited state density for this state as the 1-particle RhoCI density.
 SavETr:  write IOETrn=   770 NScale= 10 NData=  16 NLR=1 NState=    1 LETran=      28.

 **********************************************************************

            Population analysis using the SCF Density.

 **********************************************************************

 Orbital symmetries:
       Occupied  (A) (A) (A) (A) (A) (A) (A) (A) (A) (A) (A) (A)
                 (A) (A) (A) (A) (A) (A) (A) (A) (A)
       Virtual   (A) (A) (A) (A) (A) (A) (A) (A) (A) (A) (A) (A)
                 (A) (A) (A) (A) (A) (A) (A) (A) (A) (A) (A) (A)
                 (A) (A) (A) (A) (A) (A) (A) (A) (A) (A) (A) (A)
                 (A) (A) (A) (A) (A) (A) (A) (A) (A) (A) (A) (A)
                 (A) (A) (A) (A) (A) (A) (A) (A) (A) (A) (A) (A)
                 (A) (A) (A) (A) (A) (A) (A) (A) (A) (A) (A) (A)
                 (A) (A) (A) (A) (A) (A) (A) (A) (A) (A) (A) (A)
                 (A) (A) (A) (A) (A) (A) (A) (A) (A) (A) (A) (A)
                 (A) (A) (A)
 The electronic state is 1-A.
 Alpha  occ. eigenvalues --  -10.20169 -10.20141 -10.19996 -10.19728 -10.19360
 Alpha  occ. eigenvalues --  -10.19203  -0.83802  -0.73688  -0.73453  -0.59884
 Alpha  occ. eigenvalues --   -0.58914  -0.51199  -0.45377  -0.43726  -0.41541
 Alpha  occ. eigenvalues --   -0.40736  -0.35430  -0.34195  -0.32582  -0.24543
 Alpha  occ. eigenvalues --   -0.24493
 Alpha virt. eigenvalues --   -0.00779  -0.00465   0.07687   0.12829   0.13920
 Alpha virt. eigenvalues --    0.14261   0.16030   0.17893   0.18851   0.27785
 Alpha virt. eigenvalues --    0.28643   0.30604   0.31438   0.46150   0.49071
 Alpha virt. eigenvalues --    0.52293   0.52803   0.55809   0.58916   0.59586
 Alpha virt. eigenvalues --    0.60079   0.60430   0.60547   0.62562   0.63136
 Alpha virt. eigenvalues --    0.66335   0.66419   0.73430   0.77441   0.78952
 Alpha virt. eigenvalues --    0.81492   0.82062   0.85649   0.91717   0.92225
 Alpha virt. eigenvalues --    0.92576   0.93294   1.05061   1.06787   1.08363
 Alpha virt. eigenvalues --    1.09455   1.14481   1.22697   1.29357   1.32287
 Alpha virt. eigenvalues --    1.36673   1.41215   1.42341   1.49450   1.50336
 Alpha virt. eigenvalues --    1.70650   1.72780   1.74203   1.78513   1.84321
 Alpha virt. eigenvalues --    1.88469   1.94094   1.95530   1.98654   2.00153
 Alpha virt. eigenvalues --    2.02630   2.03380   2.06751   2.21841   2.25496
 Alpha virt. eigenvalues --    2.26790   2.31836   2.34116   2.36350   2.39426
 Alpha virt. eigenvalues --    2.41662   2.42846   2.44368   2.45797   2.48542
 Alpha virt. eigenvalues --    2.49108   2.51695   2.56840   2.58197   2.62355
 Alpha virt. eigenvalues --    2.72300   2.74202   2.78152   2.90363   2.95076
 Alpha virt. eigenvalues --    3.06168   3.14720   3.20054   3.23362   3.38626
 Alpha virt. eigenvalues --    3.44690   3.52635   3.84733   4.10854   4.16299
 Alpha virt. eigenvalues --    4.16843   4.43005   4.44036   4.77725
          Condensed to atoms (all electrons):
               1          2          3          4          5          6
     1  C    4.841364   0.514545  -0.027547  -0.039207  -0.035193   0.542597
     2  C    0.514545   4.839047   0.532344  -0.030113  -0.040055  -0.034211
     3  C   -0.027547   0.532344   4.843313   0.516106  -0.027498  -0.035722
     4  C   -0.039207  -0.030113   0.516106   4.824846   0.542594  -0.041119
     5  C   -0.035193  -0.040055  -0.027498   0.542594   4.860538   0.516378
     6  C    0.542597  -0.034211  -0.035722  -0.041119   0.516378   4.846635
     7  H    0.359004  -0.035380   0.003966   0.000528   0.005653  -0.049253
     8  H   -0.032841   0.003051   0.000239   0.004410  -0.039966   0.362446
     9  H    0.004476   0.000454   0.003756  -0.036409   0.348647  -0.037194
    10  H    0.000196   0.004230  -0.040783   0.374650  -0.045291   0.005521
    11  H    0.006169  -0.046022   0.372965  -0.044757   0.005022   0.000508
    12  H   -0.037313   0.377675  -0.045970   0.004692   0.000300   0.003337
               7          8          9         10         11         12
     1  C    0.359004  -0.032841   0.004476   0.000196   0.006169  -0.037313
     2  C   -0.035380   0.003051   0.000454   0.004230  -0.046022   0.377675
     3  C    0.003966   0.000239   0.003756  -0.040783   0.372965  -0.045970
     4  C    0.000528   0.004410  -0.036409   0.374650  -0.044757   0.004692
     5  C    0.005653  -0.039966   0.348647  -0.045291   0.005022   0.000300
     6  C   -0.049253   0.362446  -0.037194   0.005521   0.000508   0.003337
     7  H    0.640723  -0.006057  -0.000210   0.000012  -0.000153  -0.003681
     8  H   -0.006057   0.620584  -0.005759  -0.000208   0.000009  -0.000080
     9  H   -0.000210  -0.005759   0.657103  -0.006221  -0.000137   0.000010
    10  H    0.000012  -0.000208  -0.006221   0.621389  -0.004621  -0.000159
    11  H   -0.000153   0.000009  -0.000137  -0.004621   0.634002  -0.008632
    12  H   -0.003681  -0.000080   0.000010  -0.000159  -0.008632   0.613008
 Mulliken charges:
               1
     1  C   -0.096248
     2  C   -0.085564
     3  C   -0.095168
     4  C   -0.076219
     5  C   -0.091128
     6  C   -0.079923
     7  H    0.084848
     8  H    0.094172
     9  H    0.071487
    10  H    0.091285
    11  H    0.085647
    12  H    0.096813
 Sum of Mulliken charges =  -0.00000
 Mulliken charges with hydrogens summed into heavy atoms:
               1
     1  C   -0.011400
     2  C    0.011249
     3  C   -0.009521
     4  C    0.015065
     5  C   -0.019642
     6  C    0.014249
 Electronic spatial extent (au):  <R**2>=            470.7907
 Charge=             -0.0000 electrons
 Dipole moment (field-independent basis, Debye):
    X=             -0.0333    Y=              0.0898    Z=             -0.0189  Tot=              0.0976
 Quadrupole moment (field-independent basis, Debye-Ang):
   XX=            -30.9416   YY=            -32.3022   ZZ=            -38.9305
   XY=             -0.2388   XZ=             -0.0008   YZ=             -0.5067
 Traceless Quadrupole moment (field-independent basis, Debye-Ang):
   XX=              3.1164   YY=              1.7559   ZZ=             -4.8724
   XY=             -0.2388   XZ=             -0.0008   YZ=             -0.5067
 Octapole moment (field-independent basis, Debye-Ang**2):
  XXX=             -1.6415  YYY=              1.9392  ZZZ=             -0.0431  XYY=              1.1470
  XXY=             -0.6420  XXZ=              0.0815  XZZ=             -0.4799  YZZ=              0.2116
  YYZ=             -0.2007  XYZ=             -0.4427
 Hexadecapole moment (field-independent basis, Debye-Ang**3):
 XXXX=           -276.2352 YYYY=           -278.7704 ZZZZ=            -41.6343 XXXY=             -1.1408
 XXXZ=             -0.0260 YYYX=             -1.2663 YYYZ=             -3.0981 ZZZX=             -0.0011
 ZZZY=             -0.4809 XXYY=            -95.4359 XXZZ=            -63.7367 YYZZ=            -61.8810
 XXYZ=             -1.1828 YYXZ=             -0.0989 ZZXY=             -0.2010
 N-N= 1.999588146617D+02 E-N=-9.368107890149D+02  KE= 2.294596444190D+02
 1\1\GINC-DESKTOP-PRN5QE3\SP\RB3LYP TD-FC\6-31G(d,p)\C6H6\SHOHEI\10-Nov
 -2023\0\\# TD=(NStates=1) B3LYP/6-31G(d,p)\\ABSSPCT\\0,1\C,0,-0.252552
 5554,1.3718176637,-0.0625335859\C,0,1.0979933823,0.9289795356,-0.03252
 57543\C,0,1.3292924786,-0.4563611206,0.1022820164\C,0,0.2608384116,-1.
 4101499224,-0.0713049196\C,0,-1.0577886463,-0.9150220773,0.0217913716\
 C,0,-1.3391989286,0.4949066244,0.0497860671\H,0,-0.6407165854,2.439244
 2976,0.0534088593\H,0,-2.4691710695,0.7300258513,0.1232704522\H,0,-2.0
 048518643,-1.6549664382,-0.0892759244\H,0,0.3320578391,-2.4564527388,-
 0.1459323517\H,0,2.3226170138,-0.7546301134,0.031401496\H,0,1.99235384
 36,1.5180996223,0.0079915034\\Version=EM64L-G16RevB.01\State=1-A\HF=-2
 32.2214903\RMSD=2.729e-09\PG=C01 [X(C6H6)]\\@


 SCIENCE AND PEACE WILL TRIUMPH OVER IGNORANCE AND WAR

                          -- PASTEUR
 Job cpu time:       0 days  0 hours  6 minutes  6.9 seconds.
 Elapsed time:       0 days  0 hours  1 minutes 32.5 seconds.
 File lengths (MBytes):  RWF=    116 Int=      0 D2E=      0 Chk=      3 Scr=      1
 Normal termination of Gaussian 16 at Fri Nov 10 16:47:06 2023.
