 Entering Gaussian System, Link 0=g16
 Input=Geometry-254-.com
 Output=Geometry-254-.log
 Initial command:
 /home/shohei/gaussian/g16/l1.exe "/home/shohei/gaussian/scratch/Gau-19920.inp" -scrdir="/home/shohei/gaussian/scratch/"
 Entering Link 1 = /home/shohei/gaussian/g16/l1.exe PID=     19922.
  
 Copyright (c) 1988-2017, Gaussian, Inc.  All Rights Reserved.
  
 This is part of the Gaussian(R) 16 program.  It is based on
 the Gaussian(R) 09 system (copyright 2009, Gaussian, Inc.),
 the Gaussian(R) 03 system (copyright 2003, Gaussian, Inc.),
 the Gaussian(R) 98 system (copyright 1998, Gaussian, Inc.),
 the Gaussian(R) 94 system (copyright 1995, Gaussian, Inc.),
 the Gaussian 92(TM) system (copyright 1992, Gaussian, Inc.),
 the Gaussian 90(TM) system (copyright 1990, Gaussian, Inc.),
 the Gaussian 88(TM) system (copyright 1988, Gaussian, Inc.),
 the Gaussian 86(TM) system (copyright 1986, Carnegie Mellon
 University), and the Gaussian 82(TM) system (copyright 1983,
 Carnegie Mellon University). Gaussian is a federally registered
 trademark of Gaussian, Inc.
  
 This software contains proprietary and confidential information,
 including trade secrets, belonging to Gaussian, Inc.
  
 This software is provided under written license and may be
 used, copied, transmitted, or stored only in accord with that
 written license.
  
 The following legend is applicable only to US Government
 contracts under FAR:
  
                    RESTRICTED RIGHTS LEGEND
  
 Use, reproduction and disclosure by the US Government is
 subject to restrictions as set forth in subparagraphs (a)
 and (c) of the Commercial Computer Software - Restricted
 Rights clause in FAR 52.227-19.
  
 Gaussian, Inc.
 340 Quinnipiac St., Bldg. 40, Wallingford CT 06492
  
  
 ---------------------------------------------------------------
 Warning -- This program may not be used in any manner that
 competes with the business of Gaussian, Inc. or will provide
 assistance to any competitor of Gaussian, Inc.  The licensee
 of this program is prohibited from giving any competitor of
 Gaussian, Inc. access to this program.  By using this program,
 the user acknowledges that Gaussian, Inc. is engaged in the
 business of creating and licensing software in the field of
 computational chemistry and represents and warrants to the
 licensee that it is not a competitor of Gaussian, Inc. and that
 it will not use this program in any manner prohibited above.
 ---------------------------------------------------------------
  

 Cite this work as:
 Gaussian 16, Revision B.01,
 M. J. Frisch, G. W. Trucks, H. B. Schlegel, G. E. Scuseria, 
 M. A. Robb, J. R. Cheeseman, G. Scalmani, V. Barone, 
 G. A. Petersson, H. Nakatsuji, X. Li, M. Caricato, A. V. Marenich, 
 J. Bloino, B. G. Janesko, R. Gomperts, B. Mennucci, H. P. Hratchian, 
 J. V. Ortiz, A. F. Izmaylov, J. L. Sonnenberg, D. Williams-Young, 
 F. Ding, F. Lipparini, F. Egidi, J. Goings, B. Peng, A. Petrone, 
 T. Henderson, D. Ranasinghe, V. G. Zakrzewski, J. Gao, N. Rega, 
 G. Zheng, W. Liang, M. Hada, M. Ehara, K. Toyota, R. Fukuda, 
 J. Hasegawa, M. Ishida, T. Nakajima, Y. Honda, O. Kitao, H. Nakai, 
 T. Vreven, K. Throssell, J. A. Montgomery, Jr., J. E. Peralta, 
 F. Ogliaro, M. J. Bearpark, J. J. Heyd, E. N. Brothers, K. N. Kudin, 
 V. N. Staroverov, T. A. Keith, R. Kobayashi, J. Normand, 
 K. Raghavachari, A. P. Rendell, J. C. Burant, S. S. Iyengar, 
 J. Tomasi, M. Cossi, J. M. Millam, M. Klene, C. Adamo, R. Cammi, 
 J. W. Ochterski, R. L. Martin, K. Morokuma, O. Farkas, 
 J. B. Foresman, and D. J. Fox, Gaussian, Inc., Wallingford CT, 2016.
 
 ******************************************
 Gaussian 16:  EM64L-G16RevB.01 20-Dec-2017
                10-Nov-2023 
 ******************************************
 %nproc=4
 Will use up to    4 processors via shared memory.
 %Mem=2Gb
 ---------------------------------
 # TD=(NStates=1) B3LYP/6-31G(d,p)
 ---------------------------------
 1/38=1,172=1/1;
 2/12=2,17=6,18=5,40=1/2;
 3/5=1,6=6,7=101,11=9,25=1,30=1,74=-5/1,2,3,8;
 4//1;
 5/5=2,38=5/2;
 8/6=1,10=2,108=1/1;
 9/41=1,42=1,70=2/14;
 6/7=2,8=2,9=2,10=2/1;
 99/5=1,9=1/99;
 -------
 ABSSPCT
 -------
 Symbolic Z-matrix:
 Charge =  0 Multiplicity = 1
 6                    -0.2631    1.41179   0.0156 
 6                     0.99896   0.9029   -0.03216 
 6                     1.28398  -0.4839   -0.00284 
 6                     0.25664  -1.32548   0.00967 
 6                    -1.01831  -0.90546  -0.00612 
 6                    -1.25681   0.42257   0.0088 
 1                    -0.40218   2.3729    0.04884 
 1                    -2.29626   0.86219  -0.15679 
 1                    -1.98778  -1.56273   0.0775 
 1                     0.42246  -2.45702  -0.01727 
 1                     2.34288  -0.97162   0.02184 
 1                     1.86854   1.5317    0.13781 
 
                          Input orientation:                          
 ---------------------------------------------------------------------
 Center     Atomic      Atomic             Coordinates (Angstroms)
 Number     Number       Type             X           Y           Z
 ---------------------------------------------------------------------
      1          6           0       -0.263102    1.411790    0.015602
      2          6           0        0.998963    0.902902   -0.032161
      3          6           0        1.283976   -0.483899   -0.002843
      4          6           0        0.256643   -1.325482    0.009667
      5          6           0       -1.018311   -0.905456   -0.006115
      6          6           0       -1.256809    0.422569    0.008797
      7          1           0       -0.402183    2.372905    0.048842
      8          1           0       -2.296263    0.862193   -0.156789
      9          1           0       -1.987779   -1.562735    0.077500
     10          1           0        0.422460   -2.457015   -0.017275
     11          1           0        2.342881   -0.971622    0.021840
     12          1           0        1.868545    1.531704    0.137807
 ---------------------------------------------------------------------
                    Distance matrix (angstroms):
                    1          2          3          4          5
     1  C    0.000000
     2  C    1.361637   0.000000
     3  C    2.446922   1.416090   0.000000
     4  C    2.786185   2.349145   1.328093   0.000000
     5  C    2.437303   2.709286   2.340566   1.342452   0.000000
     6  C    1.402162   2.306708   2.697668   2.312190   1.349354
     7  H    0.971694   2.032407   3.317700   3.756814   3.336208
     8  H    2.113178   3.297832   3.828025   3.366149   2.186423
     9  H    3.438916   3.874534   3.445972   2.257946   1.174255
    10  H    3.929215   3.409050   2.153045   1.143936   2.117376
    11  H    3.531549   2.307135   1.166088   2.116071   3.361959
    12  H    2.138511   1.086487   2.103369   3.283011   3.780794
                    6          7          8          9         10
     6  C    0.000000
     7  H    2.129741   0.000000
     8  H    1.140680   2.431476   0.000000
     9  H    2.116712   4.243135   2.455672   0.000000
    10  H    3.333562   4.900259   4.292792   2.572543   0.000000
    11  H    3.860273   4.326888   4.991637   4.371171   2.428156
    12  H    3.318834   2.423167   4.228552   4.944737   4.245597
                   11         12
    11  H    0.000000
    12  H    2.550506   0.000000
 Stoichiometry    C6H6
 Framework group  C1[X(C6H6)]
 Deg. of freedom    30
 Full point group                 C1      NOp   1
 Largest Abelian subgroup         C1      NOp   1
 Largest concise Abelian subgroup C1      NOp   1
                         Standard orientation:                         
 ---------------------------------------------------------------------
 Center     Atomic      Atomic             Coordinates (Angstroms)
 Number     Number       Type             X           Y           Z
 ---------------------------------------------------------------------
      1          6           0       -1.435669   -0.082031   -0.014103
      2          6           0       -0.641075   -1.186496    0.039105
      3          6           0        0.773722   -1.133428    0.010073
      4          6           0        1.346648    0.064599   -0.007804
      5          6           0        0.635273    1.203027    0.002406
      6          6           0       -0.711351    1.118561   -0.012619
      7          1           0       -2.402257   -0.175825   -0.047271
      8          1           0       -1.385774    2.024291    0.148495
      9          1           0        1.042987    2.300660   -0.086170
     10          1           0        2.485124    0.172951    0.019062
     11          1           0        1.499438   -2.045948   -0.010086
     12          1           0       -1.044807   -2.181519   -0.126380
 ---------------------------------------------------------------------
 Rotational constants (GHZ):           6.0589723           5.7390786           2.9497894
 Standard basis: 6-31G(d,p) (6D, 7F)
 There are   120 symmetry adapted cartesian basis functions of A   symmetry.
 There are   120 symmetry adapted basis functions of A   symmetry.
   120 basis functions,   210 primitive gaussians,   120 cartesian basis functions
    21 alpha electrons       21 beta electrons
       nuclear repulsion energy       206.5161858884 Hartrees.
 NAtoms=   12 NActive=   12 NUniq=   12 SFac= 1.00D+00 NAtFMM=   60 NAOKFM=F Big=F
 Integral buffers will be    131072 words long.
 Regular integral format.
 Two-electron integral symmetry is turned on.
 One-electron integrals computed using PRISM.
 NBasis=   120 RedAO= T EigKep=  5.28D-04  NBF=   120
 NBsUse=   120 1.00D-06 EigRej= -1.00D+00 NBFU=   120
 ExpMin= 1.61D-01 ExpMax= 3.05D+03 ExpMxC= 4.57D+02 IAcc=3 IRadAn=         5 AccDes= 0.00D+00
 Harris functional with IExCor=  402 and IRadAn=       5 diagonalized for initial guess.
 HarFok:  IExCor=  402 AccDes= 0.00D+00 IRadAn=         5 IDoV= 1 UseB2=F ITyADJ=14
 ICtDFT=  3500011 ScaDFX=  1.000000  1.000000  1.000000  1.000000
 FoFCou: FMM=F IPFlag=           0 FMFlag=      100000 FMFlg1=           0
         NFxFlg=           0 DoJE=T BraDBF=F KetDBF=T FulRan=T
         wScrn=  0.000000 ICntrl=       500 IOpCl=  0 I1Cent=   200000004 NGrid=           0
         NMat0=    1 NMatS0=      1 NMatT0=    0 NMatD0=    1 NMtDS0=    0 NMtDT0=    0
 Petite list used in FoFCou.
 Keep R1 ints in memory in canonical form, NReq=30147728.
 Requested convergence on RMS density matrix=1.00D-08 within 128 cycles.
 Requested convergence on MAX density matrix=1.00D-06.
 Requested convergence on             energy=1.00D-06.
 No special actions if energy rises.
 Integral accuracy reduced to 1.0D-05 until final iterations.
 Initial convergence to 1.0D-05 achieved.  Increase integral accuracy.
 SCF Done:  E(RB3LYP) =  -232.213436341     A.U. after   12 cycles
            NFock= 12  Conv=0.94D-08     -V/T= 2.0083
 DoSCS=F DFT=T ScalE2(SS,OS)=  1.000000  1.000000
 ExpMin= 1.61D-01 ExpMax= 3.05D+03 ExpMxC= 4.57D+02 IAcc=3 IRadAn=         5 AccDes= 0.00D+00
 HarFok:  IExCor=  205 AccDes= 0.00D+00 IRadAn=         5 IDoV=-2 UseB2=F ITyADJ=14
 ICtDFT= 12500011 ScaDFX=  1.000000  1.000000  1.000000  1.000000
 Range of M.O.s used for correlation:     7   120
 NBasis=   120 NAE=    21 NBE=    21 NFC=     6 NFV=     0
 NROrb=    114 NOA=    15 NOB=    15 NVA=    99 NVB=    99
 Keep R1, R2, and R3 ints in memory in canonical form, NReq=84032236.
 Orbital symmetries:
       Occupied  (A) (A) (A) (A) (A) (A) (A) (A) (A) (A) (A) (A)
                 (A) (A) (A) (A) (A) (A) (A) (A) (A)
       Virtual   (A) (A) (A) (A) (A) (A) (A) (A) (A) (A) (A) (A)
                 (A) (A) (A) (A) (A) (A) (A) (A) (A) (A) (A) (A)
                 (A) (A) (A) (A) (A) (A) (A) (A) (A) (A) (A) (A)
                 (A) (A) (A) (A) (A) (A) (A) (A) (A) (A) (A) (A)
                 (A) (A) (A) (A) (A) (A) (A) (A) (A) (A) (A) (A)
                 (A) (A) (A) (A) (A) (A) (A) (A) (A) (A) (A) (A)
                 (A) (A) (A) (A) (A) (A) (A) (A) (A) (A) (A) (A)
                 (A) (A) (A) (A) (A) (A) (A) (A) (A) (A) (A) (A)
                 (A) (A) (A)
     4 initial guesses have been made.
 Convergence on wavefunction:    0.001000000000000
 Iteration     1 Dimension     4 NMult     0 NNew      4
 CISAX will form     4 AO SS matrices at one time.
 New state      1 was old state      2
 Iteration     2 Dimension     6 NMult     4 NNew      2
 Iteration     3 Dimension     8 NMult     6 NNew      2
 Iteration     4 Dimension    10 NMult     8 NNew      2
 Iteration     5 Dimension    12 NMult    10 NNew      2
 ***********************************************************************
 Excited states from <AA,BB:AA,BB> singles matrix:
 ***********************************************************************
 
 Ground to excited state transition densities written to RWF  633
 Ground to excited state transition electric dipole moments (Au):
       state          X           Y           Z        Dip. S.      Osc.
         1        -0.0326     -0.0706     -0.0030      0.0060      0.0009
 Ground to excited state transition velocity dipole moments (Au):
       state          X           Y           Z        Dip. S.      Osc.
         1         0.0074      0.0167     -0.0001      0.0003      0.0011
 Ground to excited state transition magnetic dipole moments (Au):
       state          X           Y           Z
         1         0.0011     -0.0166      0.0642
 Ground to excited state transition velocity quadrupole moments (Au):
       state          XX          YY          ZZ          XY          XZ          YZ
         1         0.0067      0.0062     -0.0060     -0.0027      0.0083      0.0038
 <0|del|b> * <b|rxdel|0> + <0|del|b> * <b|delr+rdel|0>
 Rotatory Strengths (R) in cgs (10**-40 erg-esu-cm/Gauss)
       state          XX          YY          ZZ    R(velocity)    E-M Angle
         1        -0.6980      0.0533     -0.2645     -0.3031      102.99
 1/2[<0|r|b>*<b|rxdel|0> + (<0|rxdel|b>*<b|r|0>)*]
 Rotatory Strengths (R) in cgs (10**-40 erg-esu-cm/Gauss)
       state          XX          YY          ZZ     R(length)
         1         0.0245     -0.8263      0.1342     -0.2225
  1/2[<0|del|b>*<b|r|0> + (<0|r|b>*<b|del|0>)*] (Au)
       state          X           Y           Z        Dip. S.   Osc.(frdel)
         1        -0.0002     -0.0012      0.0000      0.0014      0.0009

 Excitation energies and oscillator strengths:
 
 Excited State   1:      Singlet-A      5.7696 eV  214.89 nm  f=0.0009  <S**2>=0.000
      20 -> 22        -0.47594
      21 -> 23         0.51796
 This state for optimization and/or second-order correction.
 Total Energy, E(TD-HF/TD-DFT) =  -232.001407399    
 Copying the excited state density for this state as the 1-particle RhoCI density.
 SavETr:  write IOETrn=   770 NScale= 10 NData=  16 NLR=1 NState=    1 LETran=      28.

 **********************************************************************

            Population analysis using the SCF Density.

 **********************************************************************

 Orbital symmetries:
       Occupied  (A) (A) (A) (A) (A) (A) (A) (A) (A) (A) (A) (A)
                 (A) (A) (A) (A) (A) (A) (A) (A) (A)
       Virtual   (A) (A) (A) (A) (A) (A) (A) (A) (A) (A) (A) (A)
                 (A) (A) (A) (A) (A) (A) (A) (A) (A) (A) (A) (A)
                 (A) (A) (A) (A) (A) (A) (A) (A) (A) (A) (A) (A)
                 (A) (A) (A) (A) (A) (A) (A) (A) (A) (A) (A) (A)
                 (A) (A) (A) (A) (A) (A) (A) (A) (A) (A) (A) (A)
                 (A) (A) (A) (A) (A) (A) (A) (A) (A) (A) (A) (A)
                 (A) (A) (A) (A) (A) (A) (A) (A) (A) (A) (A) (A)
                 (A) (A) (A) (A) (A) (A) (A) (A) (A) (A) (A) (A)
                 (A) (A) (A)
 The electronic state is 1-A.
 Alpha  occ. eigenvalues --  -10.18936 -10.18677 -10.18597 -10.18521 -10.18220
 Alpha  occ. eigenvalues --  -10.17545  -0.86490  -0.75663  -0.73994  -0.60404
 Alpha  occ. eigenvalues --   -0.59610  -0.52164  -0.45976  -0.44290  -0.41963
 Alpha  occ. eigenvalues --   -0.40416  -0.37412  -0.33642  -0.32409  -0.25740
 Alpha  occ. eigenvalues --   -0.24769
 Alpha virt. eigenvalues --    0.00421   0.00828   0.07312   0.12689   0.14374
 Alpha virt. eigenvalues --    0.17100   0.17565   0.17842   0.19812   0.29196
 Alpha virt. eigenvalues --    0.31123   0.33808   0.34325   0.44806   0.51423
 Alpha virt. eigenvalues --    0.52398   0.56401   0.58564   0.59317   0.60054
 Alpha virt. eigenvalues --    0.61482   0.62535   0.62773   0.63951   0.64524
 Alpha virt. eigenvalues --    0.66735   0.66933   0.74535   0.77481   0.79557
 Alpha virt. eigenvalues --    0.80999   0.81712   0.87547   0.91879   0.94487
 Alpha virt. eigenvalues --    0.94720   0.98560   1.07750   1.09225   1.12897
 Alpha virt. eigenvalues --    1.13020   1.18794   1.24658   1.26228   1.35905
 Alpha virt. eigenvalues --    1.40507   1.42083   1.43204   1.50376   1.52960
 Alpha virt. eigenvalues --    1.65549   1.76889   1.82527   1.83846   1.86900
 Alpha virt. eigenvalues --    1.93088   1.99930   2.00391   2.01714   2.02623
 Alpha virt. eigenvalues --    2.06426   2.11542   2.14243   2.28125   2.29248
 Alpha virt. eigenvalues --    2.30649   2.33023   2.35332   2.36613   2.42081
 Alpha virt. eigenvalues --    2.43112   2.43921   2.46763   2.48948   2.51931
 Alpha virt. eigenvalues --    2.53207   2.56658   2.59209   2.62799   2.72278
 Alpha virt. eigenvalues --    2.78187   2.80744   2.84753   2.99337   3.03976
 Alpha virt. eigenvalues --    3.13981   3.17583   3.19333   3.29577   3.43188
 Alpha virt. eigenvalues --    3.45493   3.63936   3.99595   4.15300   4.17108
 Alpha virt. eigenvalues --    4.18467   4.44818   4.45950   4.84686
          Condensed to atoms (all electrons):
               1          2          3          4          5          6
     1  C    4.758230   0.561334  -0.035873  -0.043471  -0.037259   0.527386
     2  C    0.561334   4.840450   0.520498  -0.024405  -0.059622  -0.015419
     3  C   -0.035873   0.520498   4.830532   0.574534  -0.040234  -0.058678
     4  C   -0.043471  -0.024405   0.574534   4.756067   0.553270  -0.026216
     5  C   -0.037259  -0.059622  -0.040234   0.553270   4.796143   0.557311
     6  C    0.527386  -0.015419  -0.058678  -0.026216   0.557311   4.844463
     7  H    0.386857  -0.050353   0.005879   0.000134   0.006421  -0.047491
     8  H   -0.048600   0.005967   0.001098   0.005609  -0.037375   0.355014
     9  H    0.004499   0.000275   0.004634  -0.035767   0.360803  -0.041955
    10  H    0.000708   0.005892  -0.042492   0.356059  -0.044009   0.006091
    11  H    0.003470  -0.034020   0.362094  -0.039659   0.005086   0.000335
    12  H   -0.045728   0.361633  -0.044984   0.005676   0.001135   0.006541
               7          8          9         10         11         12
     1  C    0.386857  -0.048600   0.004499   0.000708   0.003470  -0.045728
     2  C   -0.050353   0.005967   0.000275   0.005892  -0.034020   0.361633
     3  C    0.005879   0.001098   0.004634  -0.042492   0.362094  -0.044984
     4  C    0.000134   0.005609  -0.035767   0.356059  -0.039659   0.005676
     5  C    0.006421  -0.037375   0.360803  -0.044009   0.005086   0.001135
     6  C   -0.047491   0.355014  -0.041955   0.006091   0.000335   0.006541
     7  H    0.638114  -0.006891  -0.000193   0.000023  -0.000147  -0.007735
     8  H   -0.006891   0.662077  -0.008510  -0.000215   0.000015  -0.000288
     9  H   -0.000193  -0.008510   0.638266  -0.006945  -0.000163   0.000018
    10  H    0.000023  -0.000215  -0.006945   0.658162  -0.009040  -0.000242
    11  H   -0.000147   0.000015  -0.000163  -0.009040   0.631636  -0.005590
    12  H   -0.007735  -0.000288   0.000018  -0.000242  -0.005590   0.652400
 Mulliken charges:
               1
     1  C   -0.031553
     2  C   -0.112228
     3  C   -0.077009
     4  C   -0.081832
     5  C   -0.061669
     6  C   -0.107381
     7  H    0.075382
     8  H    0.072099
     9  H    0.085036
    10  H    0.076007
    11  H    0.085984
    12  H    0.077164
 Sum of Mulliken charges =  -0.00000
 Mulliken charges with hydrogens summed into heavy atoms:
               1
     1  C    0.043829
     2  C   -0.035065
     3  C    0.008975
     4  C   -0.005825
     5  C    0.023367
     6  C   -0.035282
 Electronic spatial extent (au):  <R**2>=            447.0302
 Charge=             -0.0000 electrons
 Dipole moment (field-independent basis, Debye):
    X=             -0.0958    Y=             -0.0330    Z=             -0.0720  Tot=              0.1243
 Quadrupole moment (field-independent basis, Debye-Ang):
   XX=            -31.5069   YY=            -32.3676   ZZ=            -38.2211
   XY=             -0.1020   XZ=              0.0042   YZ=              0.3078
 Traceless Quadrupole moment (field-independent basis, Debye-Ang):
   XX=              2.5250   YY=              1.6643   ZZ=             -4.1893
   XY=             -0.1020   XZ=              0.0042   YZ=              0.3078
 Octapole moment (field-independent basis, Debye-Ang**2):
  XXX=             -2.3849  YYY=              0.2072  ZZZ=             -0.1076  XYY=              0.9426
  XXY=             -0.8259  XXZ=             -0.1161  XZZ=             -0.4147  YZZ=             -0.0491
  YYZ=             -0.5238  XYZ=             -0.6881
 Hexadecapole moment (field-independent basis, Debye-Ang**3):
 XXXX=           -268.0698 YYYY=           -266.0037 ZZZZ=            -39.5664 XXXY=             -1.0415
 XXXZ=              0.6143 YYYX=              0.3072 YYYZ=              1.5292 ZZZX=              0.0894
 ZZZY=              0.3184 XXYY=            -89.4181 XXZZ=            -59.4298 YYZZ=            -58.6144
 XXYZ=              0.7670 YYXZ=             -0.5852 ZZXY=              0.2032
 N-N= 2.065161858884D+02 E-N=-9.505746982947D+02  KE= 2.302920454718D+02
 1\1\GINC-DESKTOP-PRN5QE3\SP\RB3LYP TD-FC\6-31G(d,p)\C6H6\SHOHEI\10-Nov
 -2023\0\\# TD=(NStates=1) B3LYP/6-31G(d,p)\\ABSSPCT\\0,1\C,0,-0.263101
 5029,1.4117903624,0.0156022107\C,0,0.9989626651,0.9029019768,-0.032160
 9414\C,0,1.2839763732,-0.4838992087,-0.0028432987\C,0,0.2566429915,-1.
 325481898,0.00966688\C,0,-1.0183107993,-0.9054560722,-0.0061150675\C,0
 ,-1.2568090081,0.4225694349,0.008796703\H,0,-0.4021826003,2.3729047453
 ,0.048842378\H,0,-2.2962625829,0.8621929875,-0.1567887178\H,0,-1.98777
 92052,-1.562734719,0.0774996429\H,0,0.4224604816,-2.4570151555,-0.0172
 74861\H,0,2.3428811406,-0.9716216078,0.0218399151\H,0,1.8685449414,1.5
 317041929,0.1378065503\\Version=EM64L-G16RevB.01\State=1-A\HF=-232.213
 4363\RMSD=9.373e-09\PG=C01 [X(C6H6)]\\@


 The number of Unix installations has grown to 10,
  with more expected.
                  -- The Unix Programmer's Manual,
                     2nd Edition, June, 1972.
 Job cpu time:       0 days  0 hours  3 minutes 17.9 seconds.
 Elapsed time:       0 days  0 hours  0 minutes 50.3 seconds.
 File lengths (MBytes):  RWF=    116 Int=      0 D2E=      0 Chk=      3 Scr=      1
 Normal termination of Gaussian 16 at Fri Nov 10 16:04:18 2023.
