 Entering Gaussian System, Link 0=g16
 Input=Geometry-124-.com
 Output=Geometry-124-.log
 Initial command:
 /home/shohei/gaussian/g16/l1.exe "/home/shohei/gaussian/scratch/Gau-1858.inp" -scrdir="/home/shohei/gaussian/scratch/"
 Entering Link 1 = /home/shohei/gaussian/g16/l1.exe PID=      1860.
  
 Copyright (c) 1988-2017, Gaussian, Inc.  All Rights Reserved.
  
 This is part of the Gaussian(R) 16 program.  It is based on
 the Gaussian(R) 09 system (copyright 2009, Gaussian, Inc.),
 the Gaussian(R) 03 system (copyright 2003, Gaussian, Inc.),
 the Gaussian(R) 98 system (copyright 1998, Gaussian, Inc.),
 the Gaussian(R) 94 system (copyright 1995, Gaussian, Inc.),
 the Gaussian 92(TM) system (copyright 1992, Gaussian, Inc.),
 the Gaussian 90(TM) system (copyright 1990, Gaussian, Inc.),
 the Gaussian 88(TM) system (copyright 1988, Gaussian, Inc.),
 the Gaussian 86(TM) system (copyright 1986, Carnegie Mellon
 University), and the Gaussian 82(TM) system (copyright 1983,
 Carnegie Mellon University). Gaussian is a federally registered
 trademark of Gaussian, Inc.
  
 This software contains proprietary and confidential information,
 including trade secrets, belonging to Gaussian, Inc.
  
 This software is provided under written license and may be
 used, copied, transmitted, or stored only in accord with that
 written license.
  
 The following legend is applicable only to US Government
 contracts under FAR:
  
                    RESTRICTED RIGHTS LEGEND
  
 Use, reproduction and disclosure by the US Government is
 subject to restrictions as set forth in subparagraphs (a)
 and (c) of the Commercial Computer Software - Restricted
 Rights clause in FAR 52.227-19.
  
 Gaussian, Inc.
 340 Quinnipiac St., Bldg. 40, Wallingford CT 06492
  
  
 ---------------------------------------------------------------
 Warning -- This program may not be used in any manner that
 competes with the business of Gaussian, Inc. or will provide
 assistance to any competitor of Gaussian, Inc.  The licensee
 of this program is prohibited from giving any competitor of
 Gaussian, Inc. access to this program.  By using this program,
 the user acknowledges that Gaussian, Inc. is engaged in the
 business of creating and licensing software in the field of
 computational chemistry and represents and warrants to the
 licensee that it is not a competitor of Gaussian, Inc. and that
 it will not use this program in any manner prohibited above.
 ---------------------------------------------------------------
  

 Cite this work as:
 Gaussian 16, Revision B.01,
 M. J. Frisch, G. W. Trucks, H. B. Schlegel, G. E. Scuseria, 
 M. A. Robb, J. R. Cheeseman, G. Scalmani, V. Barone, 
 G. A. Petersson, H. Nakatsuji, X. Li, M. Caricato, A. V. Marenich, 
 J. Bloino, B. G. Janesko, R. Gomperts, B. Mennucci, H. P. Hratchian, 
 J. V. Ortiz, A. F. Izmaylov, J. L. Sonnenberg, D. Williams-Young, 
 F. Ding, F. Lipparini, F. Egidi, J. Goings, B. Peng, A. Petrone, 
 T. Henderson, D. Ranasinghe, V. G. Zakrzewski, J. Gao, N. Rega, 
 G. Zheng, W. Liang, M. Hada, M. Ehara, K. Toyota, R. Fukuda, 
 J. Hasegawa, M. Ishida, T. Nakajima, Y. Honda, O. Kitao, H. Nakai, 
 T. Vreven, K. Throssell, J. A. Montgomery, Jr., J. E. Peralta, 
 F. Ogliaro, M. J. Bearpark, J. J. Heyd, E. N. Brothers, K. N. Kudin, 
 V. N. Staroverov, T. A. Keith, R. Kobayashi, J. Normand, 
 K. Raghavachari, A. P. Rendell, J. C. Burant, S. S. Iyengar, 
 J. Tomasi, M. Cossi, J. M. Millam, M. Klene, C. Adamo, R. Cammi, 
 J. W. Ochterski, R. L. Martin, K. Morokuma, O. Farkas, 
 J. B. Foresman, and D. J. Fox, Gaussian, Inc., Wallingford CT, 2016.
 
 ******************************************
 Gaussian 16:  EM64L-G16RevB.01 20-Dec-2017
                10-Nov-2023 
 ******************************************
 %nproc=4
 Will use up to    4 processors via shared memory.
 %Mem=2Gb
 ---------------------------------
 # TD=(NStates=1) B3LYP/6-31G(d,p)
 ---------------------------------
 1/38=1,172=1/1;
 2/12=2,17=6,18=5,40=1/2;
 3/5=1,6=6,7=101,11=9,25=1,30=1,74=-5/1,2,3,8;
 4//1;
 5/5=2,38=5/2;
 8/6=1,10=2,108=1/1;
 9/41=1,42=1,70=2/14;
 6/7=2,8=2,9=2,10=2/1;
 99/5=1,9=1/99;
 -------
 ABSSPCT
 -------
 Symbolic Z-matrix:
 Charge =  0 Multiplicity = 1
 6                    -0.30086   1.42854   0.01518 
 6                     1.02829   0.91713   0.06663 
 6                     1.35846  -0.52182  -0.07448 
 6                     0.20848  -1.35525  -0.00356 
 6                    -1.0081   -0.89689   0.11989 
 6                    -1.26166   0.4506   -0.1307 
 1                    -0.46234   2.47071   0.11651 
 1                    -2.41675   0.77566   0.03263 
 1                    -1.84807  -1.63997  -0.10582 
 1                     0.39632  -2.52715   0.02273 
 1                     2.2032   -0.81404  -0.12264 
 1                     1.7557    1.48431   0.0257 
 
                          Input orientation:                          
 ---------------------------------------------------------------------
 Center     Atomic      Atomic             Coordinates (Angstroms)
 Number     Number       Type             X           Y           Z
 ---------------------------------------------------------------------
      1          6           0       -0.300858    1.428539    0.015181
      2          6           0        1.028294    0.917126    0.066633
      3          6           0        1.358456   -0.521824   -0.074480
      4          6           0        0.208481   -1.355252   -0.003565
      5          6           0       -1.008096   -0.896889    0.119892
      6          6           0       -1.261656    0.450602   -0.130700
      7          1           0       -0.462345    2.470706    0.116506
      8          1           0       -2.416752    0.775664    0.032628
      9          1           0       -1.848068   -1.639967   -0.105818
     10          1           0        0.396323   -2.527149    0.022729
     11          1           0        2.203203   -0.814036   -0.122639
     12          1           0        1.755696    1.484313    0.025703
 ---------------------------------------------------------------------
                    Distance matrix (angstroms):
                    1          2          3          4          5
     1  C    0.000000
     2  C    1.425074   0.000000
     3  C    2.562280   1.483070   0.000000
     4  C    2.830065   2.416759   1.421996   0.000000
     5  C    2.432851   2.727704   2.403959   1.305908   0.000000
     6  C    1.378686   2.345306   2.795311   2.332076   1.393852
     7  H    1.059461   2.153626   3.508137   3.886178   3.411532
     8  H    2.214398   3.448117   3.993387   3.381414   2.188461
     9  H    3.438638   3.852522   3.396030   2.078681   1.143969
    10  H    4.016663   3.502048   2.226314   1.187147   2.153968
    11  H    3.364292   2.100751   0.895156   2.070268   3.221510
    12  H    2.057337   0.923303   2.047540   3.233861   3.649320
                    6          7          8          9         10
     6  C    0.000000
     7  H    2.186511   0.000000
     8  H    1.211027   2.588419   0.000000
     9  H    2.171400   4.343650   2.485527   0.000000
    10  H    3.411662   5.071948   4.338440   2.416797   0.000000
    11  H    3.688445   4.236964   4.888275   4.134639   2.494133
    12  H    3.193342   2.429181   4.232204   4.771324   4.235531
                   11         12
    11  H    0.000000
    12  H    2.346205   0.000000
 Stoichiometry    C6H6
 Framework group  C1[X(C6H6)]
 Deg. of freedom    30
 Full point group                 C1      NOp   1
 Largest Abelian subgroup         C1      NOp   1
 Largest concise Abelian subgroup C1      NOp   1
                         Standard orientation:                         
 ---------------------------------------------------------------------
 Center     Atomic      Atomic             Coordinates (Angstroms)
 Number     Number       Type             X           Y           Z
 ---------------------------------------------------------------------
      1          6           0       -1.456658   -0.119892   -0.007715
      2          6           0       -0.591688   -1.250984   -0.065112
      3          6           0        0.882847   -1.162227    0.066670
      4          6           0        1.357890    0.176062   -0.006734
      5          6           0        0.574437    1.214165   -0.124804
      6          6           0       -0.788270    1.077537    0.134397
      7          1           0       -2.502710   -0.258661   -0.102451
      8          1           0       -1.426753    2.094241   -0.024474
      9          1           0        1.052057    2.229438    0.098279
     10          1           0        2.535027    0.326162   -0.040447
     11          1           0        1.401608   -1.890379    0.111245
     12          1           0       -0.930585   -2.108778   -0.022368
 ---------------------------------------------------------------------
 Rotational constants (GHZ):           5.9190924           5.4983027           2.8680161
 Standard basis: 6-31G(d,p) (6D, 7F)
 There are   120 symmetry adapted cartesian basis functions of A   symmetry.
 There are   120 symmetry adapted basis functions of A   symmetry.
   120 basis functions,   210 primitive gaussians,   120 cartesian basis functions
    21 alpha electrons       21 beta electrons
       nuclear repulsion energy       204.0884684609 Hartrees.
 NAtoms=   12 NActive=   12 NUniq=   12 SFac= 1.00D+00 NAtFMM=   60 NAOKFM=F Big=F
 Integral buffers will be    131072 words long.
 Regular integral format.
 Two-electron integral symmetry is turned on.
 One-electron integrals computed using PRISM.
 NBasis=   120 RedAO= T EigKep=  9.71D-04  NBF=   120
 NBsUse=   120 1.00D-06 EigRej= -1.00D+00 NBFU=   120
 ExpMin= 1.61D-01 ExpMax= 3.05D+03 ExpMxC= 4.57D+02 IAcc=3 IRadAn=         5 AccDes= 0.00D+00
 Harris functional with IExCor=  402 and IRadAn=       5 diagonalized for initial guess.
 HarFok:  IExCor=  402 AccDes= 0.00D+00 IRadAn=         5 IDoV= 1 UseB2=F ITyADJ=14
 ICtDFT=  3500011 ScaDFX=  1.000000  1.000000  1.000000  1.000000
 FoFCou: FMM=F IPFlag=           0 FMFlag=      100000 FMFlg1=           0
         NFxFlg=           0 DoJE=T BraDBF=F KetDBF=T FulRan=T
         wScrn=  0.000000 ICntrl=       500 IOpCl=  0 I1Cent=   200000004 NGrid=           0
         NMat0=    1 NMatS0=      1 NMatT0=    0 NMatD0=    1 NMtDS0=    0 NMtDT0=    0
 Petite list used in FoFCou.
 Keep R1 ints in memory in canonical form, NReq=30147728.
 Requested convergence on RMS density matrix=1.00D-08 within 128 cycles.
 Requested convergence on MAX density matrix=1.00D-06.
 Requested convergence on             energy=1.00D-06.
 No special actions if energy rises.
 Integral accuracy reduced to 1.0D-05 until final iterations.
 Initial convergence to 1.0D-05 achieved.  Increase integral accuracy.
 SCF Done:  E(RB3LYP) =  -232.148348495     A.U. after   13 cycles
            NFock= 13  Conv=0.73D-08     -V/T= 2.0079
 DoSCS=F DFT=T ScalE2(SS,OS)=  1.000000  1.000000
 ExpMin= 1.61D-01 ExpMax= 3.05D+03 ExpMxC= 4.57D+02 IAcc=3 IRadAn=         5 AccDes= 0.00D+00
 HarFok:  IExCor=  205 AccDes= 0.00D+00 IRadAn=         5 IDoV=-2 UseB2=F ITyADJ=14
 ICtDFT= 12500011 ScaDFX=  1.000000  1.000000  1.000000  1.000000
 Range of M.O.s used for correlation:     7   120
 NBasis=   120 NAE=    21 NBE=    21 NFC=     6 NFV=     0
 NROrb=    114 NOA=    15 NOB=    15 NVA=    99 NVB=    99
 Keep R1, R2, and R3 ints in memory in canonical form, NReq=84032236.
 Orbital symmetries:
       Occupied  (A) (A) (A) (A) (A) (A) (A) (A) (A) (A) (A) (A)
                 (A) (A) (A) (A) (A) (A) (A) (A) (A)
       Virtual   (A) (A) (A) (A) (A) (A) (A) (A) (A) (A) (A) (A)
                 (A) (A) (A) (A) (A) (A) (A) (A) (A) (A) (A) (A)
                 (A) (A) (A) (A) (A) (A) (A) (A) (A) (A) (A) (A)
                 (A) (A) (A) (A) (A) (A) (A) (A) (A) (A) (A) (A)
                 (A) (A) (A) (A) (A) (A) (A) (A) (A) (A) (A) (A)
                 (A) (A) (A) (A) (A) (A) (A) (A) (A) (A) (A) (A)
                 (A) (A) (A) (A) (A) (A) (A) (A) (A) (A) (A) (A)
                 (A) (A) (A) (A) (A) (A) (A) (A) (A) (A) (A) (A)
                 (A) (A) (A)
     4 initial guesses have been made.
 Convergence on wavefunction:    0.001000000000000
 Iteration     1 Dimension     4 NMult     0 NNew      4
 CISAX will form     4 AO SS matrices at one time.
 New state      1 was old state      2
 Iteration     2 Dimension     6 NMult     4 NNew      2
 Iteration     3 Dimension     8 NMult     6 NNew      2
 Iteration     4 Dimension    10 NMult     8 NNew      2
 Iteration     5 Dimension    12 NMult    10 NNew      2
 ***********************************************************************
 Excited states from <AA,BB:AA,BB> singles matrix:
 ***********************************************************************
 
 Ground to excited state transition densities written to RWF  633
 Ground to excited state transition electric dipole moments (Au):
       state          X           Y           Z        Dip. S.      Osc.
         1        -0.0308     -0.0643      0.0036      0.0051      0.0007
 Ground to excited state transition velocity dipole moments (Au):
       state          X           Y           Z        Dip. S.      Osc.
         1         0.0054      0.0132     -0.0008      0.0002      0.0007
 Ground to excited state transition magnetic dipole moments (Au):
       state          X           Y           Z
         1        -0.0228     -0.0017     -0.0834
 Ground to excited state transition velocity quadrupole moments (Au):
       state          XX          YY          ZZ          XY          XZ          YZ
         1        -0.0067      0.0243     -0.0044     -0.0098     -0.0214     -0.0127
 <0|del|b> * <b|rxdel|0> + <0|del|b> * <b|delr+rdel|0>
 Rotatory Strengths (R) in cgs (10**-40 erg-esu-cm/Gauss)
       state          XX          YY          ZZ    R(velocity)    E-M Angle
         1         0.6035     -0.2415     -0.6479     -0.0953       90.00
 1/2[<0|r|b>*<b|rxdel|0> + (<0|rxdel|b>*<b|r|0>)*]
 Rotatory Strengths (R) in cgs (10**-40 erg-esu-cm/Gauss)
       state          XX          YY          ZZ     R(length)
         1        -0.4965     -0.0753      0.2123     -0.1199
  1/2[<0|del|b>*<b|r|0> + (<0|r|b>*<b|del|0>)*] (Au)
       state          X           Y           Z        Dip. S.   Osc.(frdel)
         1        -0.0002     -0.0008     -0.0000      0.0010      0.0007

 Excitation energies and oscillator strengths:
 
 Excited State   1:      Singlet-A      5.3338 eV  232.45 nm  f=0.0007  <S**2>=0.000
      20 -> 22         0.52227
      21 -> 23        -0.47569
 This state for optimization and/or second-order correction.
 Total Energy, E(TD-HF/TD-DFT) =  -231.952333167    
 Copying the excited state density for this state as the 1-particle RhoCI density.
 SavETr:  write IOETrn=   770 NScale= 10 NData=  16 NLR=1 NState=    1 LETran=      28.

 **********************************************************************

            Population analysis using the SCF Density.

 **********************************************************************

 Orbital symmetries:
       Occupied  (A) (A) (A) (A) (A) (A) (A) (A) (A) (A) (A) (A)
                 (A) (A) (A) (A) (A) (A) (A) (A) (A)
       Virtual   (A) (A) (A) (A) (A) (A) (A) (A) (A) (A) (A) (A)
                 (A) (A) (A) (A) (A) (A) (A) (A) (A) (A) (A) (A)
                 (A) (A) (A) (A) (A) (A) (A) (A) (A) (A) (A) (A)
                 (A) (A) (A) (A) (A) (A) (A) (A) (A) (A) (A) (A)
                 (A) (A) (A) (A) (A) (A) (A) (A) (A) (A) (A) (A)
                 (A) (A) (A) (A) (A) (A) (A) (A) (A) (A) (A) (A)
                 (A) (A) (A) (A) (A) (A) (A) (A) (A) (A) (A) (A)
                 (A) (A) (A) (A) (A) (A) (A) (A) (A) (A) (A) (A)
                 (A) (A) (A)
 The electronic state is 1-A.
 Alpha  occ. eigenvalues --  -10.19786 -10.19193 -10.19170 -10.18265 -10.18261
 Alpha  occ. eigenvalues --  -10.18118  -0.85209  -0.75156  -0.74097  -0.61787
 Alpha  occ. eigenvalues --   -0.59546  -0.52664  -0.46523  -0.44057  -0.42608
 Alpha  occ. eigenvalues --   -0.41035  -0.36609  -0.33323  -0.32292  -0.25531
 Alpha  occ. eigenvalues --   -0.24149
 Alpha virt. eigenvalues --   -0.01656   0.00369   0.07841   0.13009   0.14273
 Alpha virt. eigenvalues --    0.16362   0.17513   0.18609   0.20492   0.27557
 Alpha virt. eigenvalues --    0.29332   0.31511   0.34051   0.45630   0.46420
 Alpha virt. eigenvalues --    0.52620   0.54040   0.55245   0.58374   0.58854
 Alpha virt. eigenvalues --    0.59952   0.61058   0.62421   0.63282   0.65595
 Alpha virt. eigenvalues --    0.66993   0.67468   0.73814   0.75500   0.78841
 Alpha virt. eigenvalues --    0.82379   0.84688   0.90601   0.92731   0.93672
 Alpha virt. eigenvalues --    0.96444   0.96920   1.01213   1.06766   1.08112
 Alpha virt. eigenvalues --    1.09918   1.13072   1.22564   1.32147   1.36572
 Alpha virt. eigenvalues --    1.38224   1.39144   1.43939   1.46915   1.57753
 Alpha virt. eigenvalues --    1.68809   1.73543   1.75157   1.81048   1.89288
 Alpha virt. eigenvalues --    1.94372   1.96475   1.96981   2.00704   2.03682
 Alpha virt. eigenvalues --    2.06880   2.08678   2.12902   2.23085   2.24165
 Alpha virt. eigenvalues --    2.28830   2.33427   2.35889   2.36783   2.39974
 Alpha virt. eigenvalues --    2.42375   2.46880   2.48358   2.50670   2.52817
 Alpha virt. eigenvalues --    2.54920   2.56825   2.59715   2.65595   2.69202
 Alpha virt. eigenvalues --    2.81407   2.85566   2.87890   3.01455   3.04766
 Alpha virt. eigenvalues --    3.08291   3.17733   3.19643   3.41820   3.44332
 Alpha virt. eigenvalues --    3.63055   3.90576   4.10100   4.16397   4.18208
 Alpha virt. eigenvalues --    4.18570   4.42541   4.45714   4.78319
          Condensed to atoms (all electrons):
               1          2          3          4          5          6
     1  C    4.842946   0.508640  -0.019260  -0.052558  -0.030188   0.520917
     2  C    0.508640   4.834044   0.528198  -0.008444  -0.052218  -0.021797
     3  C   -0.019260   0.528198   4.774640   0.521173  -0.036737  -0.047527
     4  C   -0.052558  -0.008444   0.521173   4.836174   0.538406  -0.025888
     5  C   -0.030188  -0.052218  -0.036737   0.538406   4.844857   0.510815
     6  C    0.520917  -0.021797  -0.047527  -0.025888   0.510815   4.888870
     7  H    0.381618  -0.043841   0.003854   0.000058   0.004396  -0.042455
     8  H   -0.040155   0.005012   0.000694   0.005831  -0.039549   0.346364
     9  H    0.005013   0.000098   0.005668  -0.041424   0.367743  -0.042905
    10  H    0.000449   0.004659  -0.044073   0.353864  -0.042936   0.006075
    11  H    0.007252  -0.053840   0.386854  -0.058821   0.010058  -0.000604
    12  H   -0.058110   0.379259  -0.053993   0.008332   0.000556   0.009013
               7          8          9         10         11         12
     1  C    0.381618  -0.040155   0.005013   0.000449   0.007252  -0.058110
     2  C   -0.043841   0.005012   0.000098   0.004659  -0.053840   0.379259
     3  C    0.003854   0.000694   0.005668  -0.044073   0.386854  -0.053993
     4  C    0.000058   0.005831  -0.041424   0.353864  -0.058821   0.008332
     5  C    0.004396  -0.039549   0.367743  -0.042936   0.010058   0.000556
     6  C   -0.042455   0.346364  -0.042905   0.006075  -0.000604   0.009013
     7  H    0.612493  -0.005627  -0.000139   0.000016  -0.000134  -0.007325
     8  H   -0.005627   0.671513  -0.007651  -0.000186   0.000014  -0.000261
     9  H   -0.000139  -0.007651   0.639715  -0.010867  -0.000249   0.000011
    10  H    0.000016  -0.000186  -0.010867   0.670983  -0.005976  -0.000241
    11  H   -0.000134   0.000014  -0.000249  -0.005976   0.681294  -0.010302
    12  H   -0.007325  -0.000261   0.000011  -0.000241  -0.010302   0.673213
 Mulliken charges:
               1
     1  C   -0.066565
     2  C   -0.079771
     3  C   -0.019492
     4  C   -0.076703
     5  C   -0.075203
     6  C   -0.100880
     7  H    0.097086
     8  H    0.064002
     9  H    0.084989
    10  H    0.068233
    11  H    0.044454
    12  H    0.059849
 Sum of Mulliken charges =  -0.00000
 Mulliken charges with hydrogens summed into heavy atoms:
               1
     1  C    0.030521
     2  C   -0.019921
     3  C    0.024962
     4  C   -0.008470
     5  C    0.009786
     6  C   -0.036878
 Electronic spatial extent (au):  <R**2>=            455.5895
 Charge=             -0.0000 electrons
 Dipole moment (field-independent basis, Debye):
    X=             -0.0687    Y=             -0.3895    Z=              0.0296  Tot=              0.3967
 Quadrupole moment (field-independent basis, Debye-Ang):
   XX=            -31.5453   YY=            -32.0673   ZZ=            -38.2997
   XY=              0.1571   XZ=              0.5097   YZ=              0.0051
 Traceless Quadrupole moment (field-independent basis, Debye-Ang):
   XX=              2.4255   YY=              1.9035   ZZ=             -4.3289
   XY=              0.1571   XZ=              0.5097   YZ=              0.0051
 Octapole moment (field-independent basis, Debye-Ang**2):
  XXX=             -2.0122  YYY=             -3.5621  ZZZ=              0.0486  XYY=              1.1953
  XXY=             -1.7634  XXZ=             -0.5346  XZZ=              0.0362  YZZ=             -0.8397
  YYZ=              0.6257  XYZ=              0.2063
 Hexadecapole moment (field-independent basis, Debye-Ang**3):
 XXXX=           -277.9664 YYYY=           -262.6164 ZZZZ=            -41.1836 XXXY=              1.7566
 XXXZ=              2.1692 YYYX=             -0.5674 YYYZ=              0.0987 ZZZX=              0.6298
 ZZZY=             -0.1114 XXYY=            -90.8334 XXZZ=            -61.7835 YYZZ=            -58.0432
 XXYZ=             -0.2554 YYXZ=              1.8723 ZZXY=              0.1604
 N-N= 2.040884684609D+02 E-N=-9.455758431904D+02  KE= 2.303202086315D+02
 1\1\GINC-DESKTOP-PRN5QE3\SP\RB3LYP TD-FC\6-31G(d,p)\C6H6\SHOHEI\10-Nov
 -2023\0\\# TD=(NStates=1) B3LYP/6-31G(d,p)\\ABSSPCT\\0,1\C,0,-0.300857
 8931,1.4285388304,0.0151809055\C,0,1.0282943417,0.9171258795,0.0666329
 887\C,0,1.3584557527,-0.5218241466,-0.0744803335\C,0,0.2084808232,-1.3
 552520599,-0.0035647101\C,0,-1.0080955935,-0.8968890201,0.1198921956\C
 ,0,-1.2616564405,0.4506024269,-0.1306997317\H,0,-0.4623445008,2.470706
 1959,0.1165061958\H,0,-2.4167518112,0.7756640491,0.0326283384\H,0,-1.8
 48068329,-1.6399671683,-0.1058179014\H,0,0.3963228299,-2.5271485415,0.
 0227286676\H,0,2.2032028522,-0.8140364242,-0.1226386446\H,0,1.75569567
 22,1.4843127111,0.0257025313\\Version=EM64L-G16RevB.01\State=1-A\HF=-2
 32.1483485\RMSD=7.285e-09\PG=C01 [X(C6H6)]\\@


 KNOWLEDGE IS CHIMERA - FOR BEYOND IT LIES OTHER KNOWLEDGE,
 AND THE INCOMPLETENESS OF WHAT IS KNOWN RENDERS THE KNOWING FALSE.
     -- THE THOMAS COVENANT CHRONICLES
 Job cpu time:       0 days  0 hours  3 minutes  8.3 seconds.
 Elapsed time:       0 days  0 hours  0 minutes 47.7 seconds.
 File lengths (MBytes):  RWF=    116 Int=      0 D2E=      0 Chk=      3 Scr=      1
 Normal termination of Gaussian 16 at Fri Nov 10 17:49:45 2023.
