 Entering Gaussian System, Link 0=g16
 Input=Geometry-18-.com
 Output=Geometry-18-.log
 Initial command:
 /home/shohei/gaussian/g16/l1.exe "/home/shohei/gaussian/scratch/Gau-22150.inp" -scrdir="/home/shohei/gaussian/scratch/"
 Entering Link 1 = /home/shohei/gaussian/g16/l1.exe PID=     22152.
  
 Copyright (c) 1988-2017, Gaussian, Inc.  All Rights Reserved.
  
 This is part of the Gaussian(R) 16 program.  It is based on
 the Gaussian(R) 09 system (copyright 2009, Gaussian, Inc.),
 the Gaussian(R) 03 system (copyright 2003, Gaussian, Inc.),
 the Gaussian(R) 98 system (copyright 1998, Gaussian, Inc.),
 the Gaussian(R) 94 system (copyright 1995, Gaussian, Inc.),
 the Gaussian 92(TM) system (copyright 1992, Gaussian, Inc.),
 the Gaussian 90(TM) system (copyright 1990, Gaussian, Inc.),
 the Gaussian 88(TM) system (copyright 1988, Gaussian, Inc.),
 the Gaussian 86(TM) system (copyright 1986, Carnegie Mellon
 University), and the Gaussian 82(TM) system (copyright 1983,
 Carnegie Mellon University). Gaussian is a federally registered
 trademark of Gaussian, Inc.
  
 This software contains proprietary and confidential information,
 including trade secrets, belonging to Gaussian, Inc.
  
 This software is provided under written license and may be
 used, copied, transmitted, or stored only in accord with that
 written license.
  
 The following legend is applicable only to US Government
 contracts under FAR:
  
                    RESTRICTED RIGHTS LEGEND
  
 Use, reproduction and disclosure by the US Government is
 subject to restrictions as set forth in subparagraphs (a)
 and (c) of the Commercial Computer Software - Restricted
 Rights clause in FAR 52.227-19.
  
 Gaussian, Inc.
 340 Quinnipiac St., Bldg. 40, Wallingford CT 06492
  
  
 ---------------------------------------------------------------
 Warning -- This program may not be used in any manner that
 competes with the business of Gaussian, Inc. or will provide
 assistance to any competitor of Gaussian, Inc.  The licensee
 of this program is prohibited from giving any competitor of
 Gaussian, Inc. access to this program.  By using this program,
 the user acknowledges that Gaussian, Inc. is engaged in the
 business of creating and licensing software in the field of
 computational chemistry and represents and warrants to the
 licensee that it is not a competitor of Gaussian, Inc. and that
 it will not use this program in any manner prohibited above.
 ---------------------------------------------------------------
  

 Cite this work as:
 Gaussian 16, Revision B.01,
 M. J. Frisch, G. W. Trucks, H. B. Schlegel, G. E. Scuseria, 
 M. A. Robb, J. R. Cheeseman, G. Scalmani, V. Barone, 
 G. A. Petersson, H. Nakatsuji, X. Li, M. Caricato, A. V. Marenich, 
 J. Bloino, B. G. Janesko, R. Gomperts, B. Mennucci, H. P. Hratchian, 
 J. V. Ortiz, A. F. Izmaylov, J. L. Sonnenberg, D. Williams-Young, 
 F. Ding, F. Lipparini, F. Egidi, J. Goings, B. Peng, A. Petrone, 
 T. Henderson, D. Ranasinghe, V. G. Zakrzewski, J. Gao, N. Rega, 
 G. Zheng, W. Liang, M. Hada, M. Ehara, K. Toyota, R. Fukuda, 
 J. Hasegawa, M. Ishida, T. Nakajima, Y. Honda, O. Kitao, H. Nakai, 
 T. Vreven, K. Throssell, J. A. Montgomery, Jr., J. E. Peralta, 
 F. Ogliaro, M. J. Bearpark, J. J. Heyd, E. N. Brothers, K. N. Kudin, 
 V. N. Staroverov, T. A. Keith, R. Kobayashi, J. Normand, 
 K. Raghavachari, A. P. Rendell, J. C. Burant, S. S. Iyengar, 
 J. Tomasi, M. Cossi, J. M. Millam, M. Klene, C. Adamo, R. Cammi, 
 J. W. Ochterski, R. L. Martin, K. Morokuma, O. Farkas, 
 J. B. Foresman, and D. J. Fox, Gaussian, Inc., Wallingford CT, 2016.
 
 ******************************************
 Gaussian 16:  EM64L-G16RevB.01 20-Dec-2017
                10-Nov-2023 
 ******************************************
 %nproc=4
 Will use up to    4 processors via shared memory.
 %Mem=2Gb
 ---------------------------------
 # TD=(NStates=1) B3LYP/6-31G(d,p)
 ---------------------------------
 1/38=1,172=1/1;
 2/12=2,17=6,18=5,40=1/2;
 3/5=1,6=6,7=101,11=9,25=1,30=1,74=-5/1,2,3,8;
 4//1;
 5/5=2,38=5/2;
 8/6=1,10=2,108=1/1;
 9/41=1,42=1,70=2/14;
 6/7=2,8=2,9=2,10=2/1;
 99/5=1,9=1/99;
 -------
 ABSSPCT
 -------
 Symbolic Z-matrix:
 Charge =  0 Multiplicity = 1
 6                    -0.27812   1.33869  -0.00387 
 6                     1.09398   0.88174   0.02981 
 6                     1.34573  -0.44398   0.00609 
 6                     0.28017  -1.35095  -0.03105 
 6                    -1.11082  -0.8757    0.05197 
 6                    -1.35172   0.45524  -0.06639 
 1                    -0.28345   2.52208   0.00572 
 1                    -2.35301   0.82712   0.05479 
 1                    -1.92901  -1.70887   0.20397 
 1                     0.53287  -2.51597  -0.05964 
 1                     2.32151  -0.82345  -0.17536 
 1                     1.95663   1.64155   0.11211 
 
                          Input orientation:                          
 ---------------------------------------------------------------------
 Center     Atomic      Atomic             Coordinates (Angstroms)
 Number     Number       Type             X           Y           Z
 ---------------------------------------------------------------------
      1          6           0       -0.278117    1.338695   -0.003868
      2          6           0        1.093978    0.881741    0.029810
      3          6           0        1.345730   -0.443983    0.006085
      4          6           0        0.280170   -1.350951   -0.031047
      5          6           0       -1.110819   -0.875702    0.051972
      6          6           0       -1.351715    0.455243   -0.066390
      7          1           0       -0.283446    2.522081    0.005725
      8          1           0       -2.353010    0.827119    0.054789
      9          1           0       -1.929014   -1.708873    0.203965
     10          1           0        0.532871   -2.515967   -0.059640
     11          1           0        2.321506   -0.823448   -0.175359
     12          1           0        1.956633    1.641551    0.112106
 ---------------------------------------------------------------------
                    Distance matrix (angstroms):
                    1          2          3          4          5
     1  C    0.000000
     2  C    1.446577   0.000000
     3  C    2.411414   1.349624   0.000000
     4  C    2.747111   2.377162   1.399781   0.000000
     5  C    2.366445   2.819615   2.494618   1.472279   0.000000
     6  C    1.391765   2.484466   2.844305   2.434468   1.357738
     7  H    1.183437   2.142100   3.384044   3.913999   3.497372
     8  H    2.137833   3.447511   3.911361   3.418332   2.107758
     9  H    3.472222   3.984983   3.516113   2.250296   1.177590
    10  H    3.939445   3.444889   2.226697   1.192450   2.324789
    11  H    3.385603   2.111063   1.062570   2.113324   3.440242
    12  H    2.258159   1.152500   2.175751   3.433087   3.968556
                    6          7          8          9         10
     6  C    0.000000
     7  H    2.327707   0.000000
     8  H    1.074973   2.675518   0.000000
     9  H    2.256051   4.544025   2.575516   0.000000
    10  H    3.518494   5.104172   4.417875   2.604182   0.000000
    11  H    3.890948   4.243952   4.962704   4.358300   2.465203
    12  H    3.519141   2.409275   4.386298   5.131474   4.397903
                   11         12
    11  H    0.000000
    12  H    2.508383   0.000000
 Stoichiometry    C6H6
 Framework group  C1[X(C6H6)]
 Deg. of freedom    30
 Full point group                 C1      NOp   1
 Largest Abelian subgroup         C1      NOp   1
 Largest concise Abelian subgroup C1      NOp   1
                         Standard orientation:                         
 ---------------------------------------------------------------------
 Center     Atomic      Atomic             Coordinates (Angstroms)
 Number     Number       Type             X           Y           Z
 ---------------------------------------------------------------------
      1          6           0        0.096526   -1.365072   -0.009626
      2          6           0       -1.200603   -0.726183    0.033568
      3          6           0       -1.270179    0.621504    0.013940
      4          6           0       -0.091595    1.375528   -0.028194
      5          6           0        1.222468    0.715629    0.045153
      6          6           0        1.279729   -0.635368   -0.077245
      7          1           0       -0.058796   -2.538249   -0.002306
      8          1           0        2.221974   -1.140054    0.036914
      9          1           0        2.147095    1.429603    0.193560
     10          1           0       -0.183958    2.564137   -0.052989
     11          1           0       -2.186473    1.130409   -0.160629
     12          1           0       -2.157916   -1.362078    0.119864
 ---------------------------------------------------------------------
 Rotational constants (GHZ):           5.8222512           5.3823769           2.8030563
 Standard basis: 6-31G(d,p) (6D, 7F)
 There are   120 symmetry adapted cartesian basis functions of A   symmetry.
 There are   120 symmetry adapted basis functions of A   symmetry.
   120 basis functions,   210 primitive gaussians,   120 cartesian basis functions
    21 alpha electrons       21 beta electrons
       nuclear repulsion energy       201.2484434125 Hartrees.
 NAtoms=   12 NActive=   12 NUniq=   12 SFac= 1.00D+00 NAtFMM=   60 NAOKFM=F Big=F
 Integral buffers will be    131072 words long.
 Regular integral format.
 Two-electron integral symmetry is turned on.
 One-electron integrals computed using PRISM.
 NBasis=   120 RedAO= T EigKep=  7.44D-04  NBF=   120
 NBsUse=   120 1.00D-06 EigRej= -1.00D+00 NBFU=   120
 ExpMin= 1.61D-01 ExpMax= 3.05D+03 ExpMxC= 4.57D+02 IAcc=3 IRadAn=         5 AccDes= 0.00D+00
 Harris functional with IExCor=  402 and IRadAn=       5 diagonalized for initial guess.
 HarFok:  IExCor=  402 AccDes= 0.00D+00 IRadAn=         5 IDoV= 1 UseB2=F ITyADJ=14
 ICtDFT=  3500011 ScaDFX=  1.000000  1.000000  1.000000  1.000000
 FoFCou: FMM=F IPFlag=           0 FMFlag=      100000 FMFlg1=           0
         NFxFlg=           0 DoJE=T BraDBF=F KetDBF=T FulRan=T
         wScrn=  0.000000 ICntrl=       500 IOpCl=  0 I1Cent=   200000004 NGrid=           0
         NMat0=    1 NMatS0=      1 NMatT0=    0 NMatD0=    1 NMtDS0=    0 NMtDT0=    0
 Petite list used in FoFCou.
 Keep R1 ints in memory in canonical form, NReq=30147728.
 Requested convergence on RMS density matrix=1.00D-08 within 128 cycles.
 Requested convergence on MAX density matrix=1.00D-06.
 Requested convergence on             energy=1.00D-06.
 No special actions if energy rises.
 Integral accuracy reduced to 1.0D-05 until final iterations.
 Initial convergence to 1.0D-05 achieved.  Increase integral accuracy.
 SCF Done:  E(RB3LYP) =  -232.220254449     A.U. after   13 cycles
            NFock= 13  Conv=0.35D-08     -V/T= 2.0118
 DoSCS=F DFT=T ScalE2(SS,OS)=  1.000000  1.000000
 ExpMin= 1.61D-01 ExpMax= 3.05D+03 ExpMxC= 4.57D+02 IAcc=3 IRadAn=         5 AccDes= 0.00D+00
 HarFok:  IExCor=  205 AccDes= 0.00D+00 IRadAn=         5 IDoV=-2 UseB2=F ITyADJ=14
 ICtDFT= 12500011 ScaDFX=  1.000000  1.000000  1.000000  1.000000
 Range of M.O.s used for correlation:     7   120
 NBasis=   120 NAE=    21 NBE=    21 NFC=     6 NFV=     0
 NROrb=    114 NOA=    15 NOB=    15 NVA=    99 NVB=    99
 Keep R1, R2, and R3 ints in memory in canonical form, NReq=84032236.
 Orbital symmetries:
       Occupied  (A) (A) (A) (A) (A) (A) (A) (A) (A) (A) (A) (A)
                 (A) (A) (A) (A) (A) (A) (A) (A) (A)
       Virtual   (A) (A) (A) (A) (A) (A) (A) (A) (A) (A) (A) (A)
                 (A) (A) (A) (A) (A) (A) (A) (A) (A) (A) (A) (A)
                 (A) (A) (A) (A) (A) (A) (A) (A) (A) (A) (A) (A)
                 (A) (A) (A) (A) (A) (A) (A) (A) (A) (A) (A) (A)
                 (A) (A) (A) (A) (A) (A) (A) (A) (A) (A) (A) (A)
                 (A) (A) (A) (A) (A) (A) (A) (A) (A) (A) (A) (A)
                 (A) (A) (A) (A) (A) (A) (A) (A) (A) (A) (A) (A)
                 (A) (A) (A) (A) (A) (A) (A) (A) (A) (A) (A) (A)
                 (A) (A) (A)
     4 initial guesses have been made.
 Convergence on wavefunction:    0.001000000000000
 Iteration     1 Dimension     4 NMult     0 NNew      4
 CISAX will form     4 AO SS matrices at one time.
 New state      1 was old state      2
 Iteration     2 Dimension     6 NMult     4 NNew      2
 Iteration     3 Dimension     8 NMult     6 NNew      2
 Iteration     4 Dimension    10 NMult     8 NNew      2
 Iteration     5 Dimension    12 NMult    10 NNew      2
 ***********************************************************************
 Excited states from <AA,BB:AA,BB> singles matrix:
 ***********************************************************************
 
 Ground to excited state transition densities written to RWF  633
 Ground to excited state transition electric dipole moments (Au):
       state          X           Y           Z        Dip. S.      Osc.
         1         0.1059      0.0606     -0.0003      0.0149      0.0020
 Ground to excited state transition velocity dipole moments (Au):
       state          X           Y           Z        Dip. S.      Osc.
         1        -0.0226     -0.0130     -0.0000      0.0007      0.0023
 Ground to excited state transition magnetic dipole moments (Au):
       state          X           Y           Z
         1        -0.0291     -0.0023      0.0137
 Ground to excited state transition velocity quadrupole moments (Au):
       state          XX          YY          ZZ          XY          XZ          YZ
         1        -0.0048     -0.0004      0.0012     -0.0022      0.0068     -0.0207
 <0|del|b> * <b|rxdel|0> + <0|del|b> * <b|delr+rdel|0>
 Rotatory Strengths (R) in cgs (10**-40 erg-esu-cm/Gauss)
       state          XX          YY          ZZ    R(velocity)    E-M Angle
         1         0.2084      1.9950      0.2331      0.8121       35.32
 1/2[<0|r|b>*<b|rxdel|0> + (<0|rxdel|b>*<b|r|0>)*]
 Rotatory Strengths (R) in cgs (10**-40 erg-esu-cm/Gauss)
       state          XX          YY          ZZ     R(length)
         1         2.1772      0.0972      0.0028      0.7590
  1/2[<0|del|b>*<b|r|0> + (<0|r|b>*<b|del|0>)*] (Au)
       state          X           Y           Z        Dip. S.   Osc.(frdel)
         1        -0.0024     -0.0008      0.0000      0.0032      0.0021

 Excitation energies and oscillator strengths:
 
 Excited State   1:      Singlet-A      5.4240 eV  228.59 nm  f=0.0020  <S**2>=0.000
      20 -> 22        -0.46343
      21 -> 23         0.53288
 This state for optimization and/or second-order correction.
 Total Energy, E(TD-HF/TD-DFT) =  -232.020927223    
 Copying the excited state density for this state as the 1-particle RhoCI density.
 SavETr:  write IOETrn=   770 NScale= 10 NData=  16 NLR=1 NState=    1 LETran=      28.

 **********************************************************************

            Population analysis using the SCF Density.

 **********************************************************************

 Orbital symmetries:
       Occupied  (A) (A) (A) (A) (A) (A) (A) (A) (A) (A) (A) (A)
                 (A) (A) (A) (A) (A) (A) (A) (A) (A)
       Virtual   (A) (A) (A) (A) (A) (A) (A) (A) (A) (A) (A) (A)
                 (A) (A) (A) (A) (A) (A) (A) (A) (A) (A) (A) (A)
                 (A) (A) (A) (A) (A) (A) (A) (A) (A) (A) (A) (A)
                 (A) (A) (A) (A) (A) (A) (A) (A) (A) (A) (A) (A)
                 (A) (A) (A) (A) (A) (A) (A) (A) (A) (A) (A) (A)
                 (A) (A) (A) (A) (A) (A) (A) (A) (A) (A) (A) (A)
                 (A) (A) (A) (A) (A) (A) (A) (A) (A) (A) (A) (A)
                 (A) (A) (A) (A) (A) (A) (A) (A) (A) (A) (A) (A)
                 (A) (A) (A)
 The electronic state is 1-A.
 Alpha  occ. eigenvalues --  -10.20408 -10.20365 -10.20276 -10.19445 -10.19125
 Alpha  occ. eigenvalues --  -10.18344  -0.84698  -0.75429  -0.72083  -0.59398
 Alpha  occ. eigenvalues --   -0.59021  -0.50784  -0.44980  -0.44072  -0.42451
 Alpha  occ. eigenvalues --   -0.39002  -0.36205  -0.33924  -0.32754  -0.26056
 Alpha  occ. eigenvalues --   -0.23506
 Alpha virt. eigenvalues --   -0.01051   0.00651   0.07027   0.12144   0.12815
 Alpha virt. eigenvalues --    0.15277   0.16140   0.17074   0.18468   0.26986
 Alpha virt. eigenvalues --    0.29557   0.31267   0.33509   0.46577   0.51079
 Alpha virt. eigenvalues --    0.52676   0.54189   0.55448   0.57151   0.58898
 Alpha virt. eigenvalues --    0.60185   0.60534   0.61779   0.62428   0.64412
 Alpha virt. eigenvalues --    0.66073   0.66518   0.73634   0.76582   0.78654
 Alpha virt. eigenvalues --    0.80193   0.81260   0.84097   0.89727   0.92192
 Alpha virt. eigenvalues --    0.93818   0.95521   1.04930   1.07149   1.09071
 Alpha virt. eigenvalues --    1.12058   1.17509   1.27097   1.27468   1.30924
 Alpha virt. eigenvalues --    1.35576   1.43132   1.43308   1.45654   1.51907
 Alpha virt. eigenvalues --    1.70363   1.74572   1.75478   1.78454   1.82106
 Alpha virt. eigenvalues --    1.87315   1.95316   1.96663   1.98619   2.02291
 Alpha virt. eigenvalues --    2.03925   2.05700   2.08160   2.22485   2.24754
 Alpha virt. eigenvalues --    2.27313   2.32594   2.33646   2.36840   2.38211
 Alpha virt. eigenvalues --    2.38934   2.42049   2.43553   2.45246   2.46721
 Alpha virt. eigenvalues --    2.47005   2.49589   2.58710   2.60275   2.66109
 Alpha virt. eigenvalues --    2.70467   2.72895   2.78260   2.87818   3.01073
 Alpha virt. eigenvalues --    3.06700   3.09183   3.14916   3.23937   3.26088
 Alpha virt. eigenvalues --    3.37300   3.51264   3.84423   4.12967   4.15294
 Alpha virt. eigenvalues --    4.18169   4.42144   4.44236   4.77217
          Condensed to atoms (all electrons):
               1          2          3          4          5          6
     1  C    4.853708   0.532850  -0.040181  -0.044044  -0.037092   0.541201
     2  C    0.532850   4.826572   0.564165  -0.042849  -0.036718  -0.038775
     3  C   -0.040181   0.564165   4.753890   0.550688  -0.036307  -0.032711
     4  C   -0.044044  -0.042849   0.550688   4.873593   0.519861  -0.038107
     5  C   -0.037092  -0.036718  -0.036307   0.519861   4.843869   0.550364
     6  C    0.541201  -0.038775  -0.032711  -0.038107   0.550364   4.785268
     7  H    0.353842  -0.042297   0.004896   0.000640   0.003571  -0.032283
     8  H   -0.041092   0.004089   0.000501   0.004538  -0.044916   0.372970
     9  H    0.003672   0.000505   0.003528  -0.035981   0.357661  -0.035618
    10  H    0.000530   0.004536  -0.036520   0.352896  -0.033404   0.003446
    11  H    0.005514  -0.044850   0.370106  -0.044225   0.004740   0.000447
    12  H   -0.035618   0.360153  -0.039685   0.004747   0.000381   0.003829
               7          8          9         10         11         12
     1  C    0.353842  -0.041092   0.003672   0.000530   0.005514  -0.035618
     2  C   -0.042297   0.004089   0.000505   0.004536  -0.044850   0.360153
     3  C    0.004896   0.000501   0.003528  -0.036520   0.370106  -0.039685
     4  C    0.000640   0.004538  -0.035981   0.352896  -0.044225   0.004747
     5  C    0.003571  -0.044916   0.357661  -0.033404   0.004740   0.000381
     6  C   -0.032283   0.372970  -0.035618   0.003446   0.000447   0.003829
     7  H    0.640855  -0.004711  -0.000102   0.000007  -0.000243  -0.006388
     8  H   -0.004711   0.620966  -0.005766  -0.000141   0.000020  -0.000132
     9  H   -0.000102  -0.005766   0.627404  -0.003937  -0.000155   0.000010
    10  H    0.000007  -0.000141  -0.003937   0.640234  -0.006684  -0.000162
    11  H   -0.000243   0.000020  -0.000155  -0.006684   0.634113  -0.006519
    12  H   -0.006388  -0.000132   0.000010  -0.000162  -0.006519   0.634144
 Mulliken charges:
               1
     1  C   -0.093289
     2  C   -0.087380
     3  C   -0.062372
     4  C   -0.101758
     5  C   -0.092011
     6  C   -0.080031
     7  H    0.082214
     8  H    0.093675
     9  H    0.088778
    10  H    0.079200
    11  H    0.087736
    12  H    0.085239
 Sum of Mulliken charges =  -0.00000
 Mulliken charges with hydrogens summed into heavy atoms:
               1
     1  C   -0.011075
     2  C   -0.002141
     3  C    0.025364
     4  C   -0.022558
     5  C   -0.003234
     6  C    0.013644
 Electronic spatial extent (au):  <R**2>=            466.7753
 Charge=             -0.0000 electrons
 Dipole moment (field-independent basis, Debye):
    X=             -0.0720    Y=              0.0150    Z=              0.0755  Tot=              0.1054
 Quadrupole moment (field-independent basis, Debye-Ang):
   XX=            -31.4823   YY=            -32.0506   ZZ=            -38.8431
   XY=              0.2038   XZ=              0.4954   YZ=             -0.1852
 Traceless Quadrupole moment (field-independent basis, Debye-Ang):
   XX=              2.6430   YY=              2.0748   ZZ=             -4.7178
   XY=              0.2038   XZ=              0.4954   YZ=             -0.1852
 Octapole moment (field-independent basis, Debye-Ang**2):
  XXX=             -0.0063  YYY=              0.4884  ZZZ=              0.0393  XYY=             -0.9326
  XXY=             -0.0832  XXZ=              0.6351  XZZ=             -0.1346  YZZ=             -0.0448
  YYZ=              0.1611  XYZ=              0.8715
 Hexadecapole moment (field-independent basis, Debye-Ang**3):
 XXXX=           -284.3722 YYYY=           -273.9415 ZZZZ=            -41.1303 XXXY=             -0.0060
 XXXZ=              3.0218 YYYX=              1.6701 YYYZ=             -0.7777 ZZZX=              0.4672
 ZZZY=             -0.1823 XXYY=            -92.2262 XXZZ=            -62.9799 YYZZ=            -61.7989
 XXYZ=             -0.7570 YYXZ=              1.0599 ZZXY=             -0.4905
 N-N= 2.012484434125D+02 E-N=-9.394399807666D+02  KE= 2.295156380654D+02
 1\1\GINC-DESKTOP-PRN5QE3\SP\RB3LYP TD-FC\6-31G(d,p)\C6H6\SHOHEI\10-Nov
 -2023\0\\# TD=(NStates=1) B3LYP/6-31G(d,p)\\ABSSPCT\\0,1\C,0,-0.278117
 0474,1.3386948868,-0.003867971\C,0,1.0939781981,0.8817409413,0.0298096
 727\C,0,1.3457299385,-0.4439829243,0.0060854892\C,0,0.2801702607,-1.35
 09507901,-0.0310465872\C,0,-1.110819129,-0.8757015132,0.0519722206\C,0
 ,-1.3517151567,0.4552428125,-0.0663903366\H,0,-0.2834462326,2.52208112
 11,0.0057245546\H,0,-2.3530095959,0.8271189876,0.0547887044\H,0,-1.929
 0135826,-1.7088732553,0.2039652708\H,0,0.5328707672,-2.5159669786,-0.0
 59640274\H,0,2.321505932,-0.8234477203,-0.1753588388\H,0,1.9566333692,
 1.6415505275,0.1121057311\\Version=EM64L-G16RevB.01\State=1-A\HF=-232.
 2202544\RMSD=3.466e-09\PG=C01 [X(C6H6)]\\@


 THE LENGTH OF A MEETING IS PROPORTIONAL TO THE
 SQUARE OF THE PARTICIPANTS.
 Job cpu time:       0 days  0 hours  3 minutes 37.0 seconds.
 Elapsed time:       0 days  0 hours  0 minutes 55.0 seconds.
 File lengths (MBytes):  RWF=    116 Int=      0 D2E=      0 Chk=      3 Scr=      1
 Normal termination of Gaussian 16 at Fri Nov 10 16:16:35 2023.
