 Entering Gaussian System, Link 0=g16
 Input=Geometry-155-.com
 Output=Geometry-155-.log
 Initial command:
 /home/shohei/gaussian/g16/l1.exe "/home/shohei/gaussian/scratch/Gau-4539.inp" -scrdir="/home/shohei/gaussian/scratch/"
 Entering Link 1 = /home/shohei/gaussian/g16/l1.exe PID=      4541.
  
 Copyright (c) 1988-2017, Gaussian, Inc.  All Rights Reserved.
  
 This is part of the Gaussian(R) 16 program.  It is based on
 the Gaussian(R) 09 system (copyright 2009, Gaussian, Inc.),
 the Gaussian(R) 03 system (copyright 2003, Gaussian, Inc.),
 the Gaussian(R) 98 system (copyright 1998, Gaussian, Inc.),
 the Gaussian(R) 94 system (copyright 1995, Gaussian, Inc.),
 the Gaussian 92(TM) system (copyright 1992, Gaussian, Inc.),
 the Gaussian 90(TM) system (copyright 1990, Gaussian, Inc.),
 the Gaussian 88(TM) system (copyright 1988, Gaussian, Inc.),
 the Gaussian 86(TM) system (copyright 1986, Carnegie Mellon
 University), and the Gaussian 82(TM) system (copyright 1983,
 Carnegie Mellon University). Gaussian is a federally registered
 trademark of Gaussian, Inc.
  
 This software contains proprietary and confidential information,
 including trade secrets, belonging to Gaussian, Inc.
  
 This software is provided under written license and may be
 used, copied, transmitted, or stored only in accord with that
 written license.
  
 The following legend is applicable only to US Government
 contracts under FAR:
  
                    RESTRICTED RIGHTS LEGEND
  
 Use, reproduction and disclosure by the US Government is
 subject to restrictions as set forth in subparagraphs (a)
 and (c) of the Commercial Computer Software - Restricted
 Rights clause in FAR 52.227-19.
  
 Gaussian, Inc.
 340 Quinnipiac St., Bldg. 40, Wallingford CT 06492
  
  
 ---------------------------------------------------------------
 Warning -- This program may not be used in any manner that
 competes with the business of Gaussian, Inc. or will provide
 assistance to any competitor of Gaussian, Inc.  The licensee
 of this program is prohibited from giving any competitor of
 Gaussian, Inc. access to this program.  By using this program,
 the user acknowledges that Gaussian, Inc. is engaged in the
 business of creating and licensing software in the field of
 computational chemistry and represents and warrants to the
 licensee that it is not a competitor of Gaussian, Inc. and that
 it will not use this program in any manner prohibited above.
 ---------------------------------------------------------------
  

 Cite this work as:
 Gaussian 16, Revision B.01,
 M. J. Frisch, G. W. Trucks, H. B. Schlegel, G. E. Scuseria, 
 M. A. Robb, J. R. Cheeseman, G. Scalmani, V. Barone, 
 G. A. Petersson, H. Nakatsuji, X. Li, M. Caricato, A. V. Marenich, 
 J. Bloino, B. G. Janesko, R. Gomperts, B. Mennucci, H. P. Hratchian, 
 J. V. Ortiz, A. F. Izmaylov, J. L. Sonnenberg, D. Williams-Young, 
 F. Ding, F. Lipparini, F. Egidi, J. Goings, B. Peng, A. Petrone, 
 T. Henderson, D. Ranasinghe, V. G. Zakrzewski, J. Gao, N. Rega, 
 G. Zheng, W. Liang, M. Hada, M. Ehara, K. Toyota, R. Fukuda, 
 J. Hasegawa, M. Ishida, T. Nakajima, Y. Honda, O. Kitao, H. Nakai, 
 T. Vreven, K. Throssell, J. A. Montgomery, Jr., J. E. Peralta, 
 F. Ogliaro, M. J. Bearpark, J. J. Heyd, E. N. Brothers, K. N. Kudin, 
 V. N. Staroverov, T. A. Keith, R. Kobayashi, J. Normand, 
 K. Raghavachari, A. P. Rendell, J. C. Burant, S. S. Iyengar, 
 J. Tomasi, M. Cossi, J. M. Millam, M. Klene, C. Adamo, R. Cammi, 
 J. W. Ochterski, R. L. Martin, K. Morokuma, O. Farkas, 
 J. B. Foresman, and D. J. Fox, Gaussian, Inc., Wallingford CT, 2016.
 
 ******************************************
 Gaussian 16:  EM64L-G16RevB.01 20-Dec-2017
                10-Nov-2023 
 ******************************************
 %nproc=4
 Will use up to    4 processors via shared memory.
 %Mem=2Gb
 ---------------------------------
 # TD=(NStates=1) B3LYP/6-31G(d,p)
 ---------------------------------
 1/38=1,172=1/1;
 2/12=2,17=6,18=5,40=1/2;
 3/5=1,6=6,7=101,11=9,25=1,30=1,74=-5/1,2,3,8;
 4//1;
 5/5=2,38=5/2;
 8/6=1,10=2,108=1/1;
 9/41=1,42=1,70=2/14;
 6/7=2,8=2,9=2,10=2/1;
 99/5=1,9=1/99;
 -------
 ABSSPCT
 -------
 Symbolic Z-matrix:
 Charge =  0 Multiplicity = 1
 6                    -0.25522   1.3149    0.01803 
 6                     1.05557   0.9457    0.06852 
 6                     1.35504  -0.4978   -0.04091 
 6                     0.26857  -1.36995  -0.04661 
 6                    -1.05479  -0.86461   0.10168 
 6                    -1.32818   0.46169  -0.05113 
 1                    -0.616     2.41302  -0.27108 
 1                    -2.45415   0.86107  -0.31022 
 1                    -1.9152   -1.37926  -0.01514 
 1                     0.46179  -2.46906   0.02835 
 1                     2.18459  -0.87219  -0.25017 
 1                     1.82176   1.59419   0.07626 
 
                          Input orientation:                          
 ---------------------------------------------------------------------
 Center     Atomic      Atomic             Coordinates (Angstroms)
 Number     Number       Type             X           Y           Z
 ---------------------------------------------------------------------
      1          6           0       -0.255223    1.314904    0.018033
      2          6           0        1.055565    0.945699    0.068520
      3          6           0        1.355044   -0.497797   -0.040908
      4          6           0        0.268566   -1.369946   -0.046614
      5          6           0       -1.054790   -0.864611    0.101681
      6          6           0       -1.328185    0.461687   -0.051132
      7          1           0       -0.615997    2.413017   -0.271082
      8          1           0       -2.454145    0.861065   -0.310216
      9          1           0       -1.915201   -1.379262   -0.015139
     10          1           0        0.461787   -2.469064    0.028350
     11          1           0        2.184585   -0.872189   -0.250166
     12          1           0        1.821758    1.594190    0.076264
 ---------------------------------------------------------------------
                    Distance matrix (angstroms):
                    1          2          3          4          5
     1  C    0.000000
     2  C    1.362728   0.000000
     3  C    2.425349   1.478291   0.000000
     4  C    2.736230   2.448435   1.393237   0.000000
     5  C    2.323056   2.780633   2.441758   1.424299   0.000000
     6  C    1.372592   2.435333   2.849637   2.429920   1.362778
     7  H    1.191469   2.249994   3.522900   3.891484   3.327813
     8  H    2.269135   3.531100   4.053264   3.529880   2.259604
     9  H    3.164673   3.773313   3.387055   2.184013   1.009365
    10  H    3.851314   3.466236   2.165316   1.118488   2.208994
    11  H    3.287548   2.163553   0.933862   1.990057   3.258437
    12  H    2.096483   1.003819   2.146617   3.348672   3.784294
                    6          7          8          9         10
     6  C    0.000000
     7  H    2.088846   0.000000
     8  H    1.222462   2.406008   0.000000
     9  H    1.932609   4.016817   2.323058   0.000000
    10  H    3.435057   5.008592   4.439262   2.615269   0.000000
    11  H    3.762764   4.316975   4.952332   4.137705   2.365505
    12  H    3.349766   2.594952   4.355478   4.776466   4.285073
                   11         12
    11  H    0.000000
    12  H    2.514205   0.000000
 Stoichiometry    C6H6
 Framework group  C1[X(C6H6)]
 Deg. of freedom    30
 Full point group                 C1      NOp   1
 Largest Abelian subgroup         C1      NOp   1
 Largest concise Abelian subgroup C1      NOp   1
                         Standard orientation:                         
 ---------------------------------------------------------------------
 Center     Atomic      Atomic             Coordinates (Angstroms)
 Number     Number       Type             X           Y           Z
 ---------------------------------------------------------------------
      1          6           0        0.846805    1.033343   -0.036492
      2          6           0       -0.481063    1.336841   -0.077502
      3          6           0       -1.434358    0.213189    0.040735
      4          6           0       -0.898155   -1.072727    0.044349
      5          6           0        0.504445   -1.263034   -0.114157
      6          6           0        1.380682   -0.229387    0.030566
      7          1           0        1.691504    1.825030    0.245134
      8          1           0        2.562304   -0.417578    0.281100
      9          1           0        1.014207   -2.126687    0.000142
     10          1           0       -1.594645   -1.945213   -0.024107
     11          1           0       -2.340296    0.282069    0.256672
     12          1           0       -0.843211    2.273036   -0.083934
 ---------------------------------------------------------------------
 Rotational constants (GHZ):           5.8726640           5.5204762           2.8617523
 Standard basis: 6-31G(d,p) (6D, 7F)
 There are   120 symmetry adapted cartesian basis functions of A   symmetry.
 There are   120 symmetry adapted basis functions of A   symmetry.
   120 basis functions,   210 primitive gaussians,   120 cartesian basis functions
    21 alpha electrons       21 beta electrons
       nuclear repulsion energy       203.7508593228 Hartrees.
 NAtoms=   12 NActive=   12 NUniq=   12 SFac= 1.00D+00 NAtFMM=   60 NAOKFM=F Big=F
 Integral buffers will be    131072 words long.
 Regular integral format.
 Two-electron integral symmetry is turned on.
 One-electron integrals computed using PRISM.
 NBasis=   120 RedAO= T EigKep=  8.39D-04  NBF=   120
 NBsUse=   120 1.00D-06 EigRej= -1.00D+00 NBFU=   120
 ExpMin= 1.61D-01 ExpMax= 3.05D+03 ExpMxC= 4.57D+02 IAcc=3 IRadAn=         5 AccDes= 0.00D+00
 Harris functional with IExCor=  402 and IRadAn=       5 diagonalized for initial guess.
 HarFok:  IExCor=  402 AccDes= 0.00D+00 IRadAn=         5 IDoV= 1 UseB2=F ITyADJ=14
 ICtDFT=  3500011 ScaDFX=  1.000000  1.000000  1.000000  1.000000
 FoFCou: FMM=F IPFlag=           0 FMFlag=      100000 FMFlg1=           0
         NFxFlg=           0 DoJE=T BraDBF=F KetDBF=T FulRan=T
         wScrn=  0.000000 ICntrl=       500 IOpCl=  0 I1Cent=   200000004 NGrid=           0
         NMat0=    1 NMatS0=      1 NMatT0=    0 NMatD0=    1 NMtDS0=    0 NMtDT0=    0
 Petite list used in FoFCou.
 Keep R1 ints in memory in canonical form, NReq=30147728.
 Requested convergence on RMS density matrix=1.00D-08 within 128 cycles.
 Requested convergence on MAX density matrix=1.00D-06.
 Requested convergence on             energy=1.00D-06.
 No special actions if energy rises.
 Integral accuracy reduced to 1.0D-05 until final iterations.
 Initial convergence to 1.0D-05 achieved.  Increase integral accuracy.
 SCF Done:  E(RB3LYP) =  -232.183163699     A.U. after   13 cycles
            NFock= 13  Conv=0.34D-08     -V/T= 2.0088
 DoSCS=F DFT=T ScalE2(SS,OS)=  1.000000  1.000000
 ExpMin= 1.61D-01 ExpMax= 3.05D+03 ExpMxC= 4.57D+02 IAcc=3 IRadAn=         5 AccDes= 0.00D+00
 HarFok:  IExCor=  205 AccDes= 0.00D+00 IRadAn=         5 IDoV=-2 UseB2=F ITyADJ=14
 ICtDFT= 12500011 ScaDFX=  1.000000  1.000000  1.000000  1.000000
 Range of M.O.s used for correlation:     7   120
 NBasis=   120 NAE=    21 NBE=    21 NFC=     6 NFV=     0
 NROrb=    114 NOA=    15 NOB=    15 NVA=    99 NVB=    99
 Keep R1, R2, and R3 ints in memory in canonical form, NReq=84032236.
 Orbital symmetries:
       Occupied  (A) (A) (A) (A) (A) (A) (A) (A) (A) (A) (A) (A)
                 (A) (A) (A) (A) (A) (A) (A) (A) (A)
       Virtual   (A) (A) (A) (A) (A) (A) (A) (A) (A) (A) (A) (A)
                 (A) (A) (A) (A) (A) (A) (A) (A) (A) (A) (A) (A)
                 (A) (A) (A) (A) (A) (A) (A) (A) (A) (A) (A) (A)
                 (A) (A) (A) (A) (A) (A) (A) (A) (A) (A) (A) (A)
                 (A) (A) (A) (A) (A) (A) (A) (A) (A) (A) (A) (A)
                 (A) (A) (A) (A) (A) (A) (A) (A) (A) (A) (A) (A)
                 (A) (A) (A) (A) (A) (A) (A) (A) (A) (A) (A) (A)
                 (A) (A) (A) (A) (A) (A) (A) (A) (A) (A) (A) (A)
                 (A) (A) (A)
     4 initial guesses have been made.
 Convergence on wavefunction:    0.001000000000000
 Iteration     1 Dimension     4 NMult     0 NNew      4
 CISAX will form     4 AO SS matrices at one time.
 New state      1 was old state      2
 Iteration     2 Dimension     6 NMult     4 NNew      2
 Iteration     3 Dimension     8 NMult     6 NNew      2
 Iteration     4 Dimension    10 NMult     8 NNew      2
 Iteration     5 Dimension    12 NMult    10 NNew      2
 ***********************************************************************
 Excited states from <AA,BB:AA,BB> singles matrix:
 ***********************************************************************
 
 Ground to excited state transition densities written to RWF  633
 Ground to excited state transition electric dipole moments (Au):
       state          X           Y           Z        Dip. S.      Osc.
         1        -0.1168      0.0521      0.0039      0.0164      0.0022
 Ground to excited state transition velocity dipole moments (Au):
       state          X           Y           Z        Dip. S.      Osc.
         1         0.0235     -0.0109     -0.0005      0.0007      0.0023
 Ground to excited state transition magnetic dipole moments (Au):
       state          X           Y           Z
         1         0.0111     -0.0040      0.0630
 Ground to excited state transition velocity quadrupole moments (Au):
       state          XX          YY          ZZ          XY          XZ          YZ
         1        -0.0099     -0.0159      0.0103     -0.0147      0.0212      0.0214
 <0|del|b> * <b|rxdel|0> + <0|del|b> * <b|delr+rdel|0>
 Rotatory Strengths (R) in cgs (10**-40 erg-esu-cm/Gauss)
       state          XX          YY          ZZ    R(velocity)    E-M Angle
         1         0.4493      1.2982     -0.7715      0.3253       80.56
 1/2[<0|r|b>*<b|rxdel|0> + (<0|rxdel|b>*<b|r|0>)*]
 Rotatory Strengths (R) in cgs (10**-40 erg-esu-cm/Gauss)
       state          XX          YY          ZZ     R(length)
         1         0.9172      0.1478     -0.1756      0.2965
  1/2[<0|del|b>*<b|r|0> + (<0|r|b>*<b|del|0>)*] (Au)
       state          X           Y           Z        Dip. S.   Osc.(frdel)
         1        -0.0027     -0.0006     -0.0000      0.0033      0.0022

 Excitation energies and oscillator strengths:
 
 Excited State   1:      Singlet-A      5.3635 eV  231.16 nm  f=0.0022  <S**2>=0.000
      20 -> 22         0.53441
      21 -> 22        -0.10275
      21 -> 23        -0.44372
 This state for optimization and/or second-order correction.
 Total Energy, E(TD-HF/TD-DFT) =  -231.986058861    
 Copying the excited state density for this state as the 1-particle RhoCI density.
 SavETr:  write IOETrn=   770 NScale= 10 NData=  16 NLR=1 NState=    1 LETran=      28.

 **********************************************************************

            Population analysis using the SCF Density.

 **********************************************************************

 Orbital symmetries:
       Occupied  (A) (A) (A) (A) (A) (A) (A) (A) (A) (A) (A) (A)
                 (A) (A) (A) (A) (A) (A) (A) (A) (A)
       Virtual   (A) (A) (A) (A) (A) (A) (A) (A) (A) (A) (A) (A)
                 (A) (A) (A) (A) (A) (A) (A) (A) (A) (A) (A) (A)
                 (A) (A) (A) (A) (A) (A) (A) (A) (A) (A) (A) (A)
                 (A) (A) (A) (A) (A) (A) (A) (A) (A) (A) (A) (A)
                 (A) (A) (A) (A) (A) (A) (A) (A) (A) (A) (A) (A)
                 (A) (A) (A) (A) (A) (A) (A) (A) (A) (A) (A) (A)
                 (A) (A) (A) (A) (A) (A) (A) (A) (A) (A) (A) (A)
                 (A) (A) (A) (A) (A) (A) (A) (A) (A) (A) (A) (A)
                 (A) (A) (A)
 The electronic state is 1-A.
 Alpha  occ. eigenvalues --  -10.19428 -10.19282 -10.19093 -10.18912 -10.18208
 Alpha  occ. eigenvalues --  -10.17736  -0.84988  -0.74893  -0.73995  -0.61370
 Alpha  occ. eigenvalues --   -0.59453  -0.51842  -0.46768  -0.43951  -0.42229
 Alpha  occ. eigenvalues --   -0.40275  -0.36505  -0.34724  -0.31919  -0.24857
 Alpha  occ. eigenvalues --   -0.24485
 Alpha virt. eigenvalues --   -0.01030   0.00444   0.07460   0.13380   0.13737
 Alpha virt. eigenvalues --    0.15815   0.17653   0.19479   0.19889   0.28447
 Alpha virt. eigenvalues --    0.29910   0.31156   0.33823   0.46078   0.50297
 Alpha virt. eigenvalues --    0.52671   0.53373   0.56543   0.58874   0.59577
 Alpha virt. eigenvalues --    0.60108   0.60580   0.62401   0.64258   0.65013
 Alpha virt. eigenvalues --    0.66199   0.67286   0.73520   0.77283   0.78878
 Alpha virt. eigenvalues --    0.80538   0.87063   0.89415   0.92251   0.93469
 Alpha virt. eigenvalues --    0.94931   0.96268   1.01739   1.05728   1.06675
 Alpha virt. eigenvalues --    1.13197   1.15435   1.24393   1.27204   1.31406
 Alpha virt. eigenvalues --    1.35849   1.42252   1.45183   1.51040   1.56722
 Alpha virt. eigenvalues --    1.66928   1.72213   1.77263   1.81126   1.88700
 Alpha virt. eigenvalues --    1.91257   1.95245   1.97890   2.00745   2.02977
 Alpha virt. eigenvalues --    2.06750   2.08832   2.13431   2.23476   2.28306
 Alpha virt. eigenvalues --    2.29550   2.31546   2.36393   2.40375   2.41336
 Alpha virt. eigenvalues --    2.42340   2.45480   2.47878   2.49148   2.50619
 Alpha virt. eigenvalues --    2.55401   2.57940   2.58813   2.64821   2.72695
 Alpha virt. eigenvalues --    2.76804   2.80102   2.83469   2.95691   3.03772
 Alpha virt. eigenvalues --    3.06612   3.17988   3.31861   3.35139   3.42840
 Alpha virt. eigenvalues --    3.66149   3.70074   4.02755   4.11933   4.16329
 Alpha virt. eigenvalues --    4.17997   4.43642   4.44600   4.80274
          Condensed to atoms (all electrons):
               1          2          3          4          5          6
     1  C    4.795452   0.572109  -0.028871  -0.044321  -0.046956   0.536537
     2  C    0.572109   4.811547   0.507169  -0.031418  -0.041076  -0.046120
     3  C   -0.028871   0.507169   4.795328   0.550403  -0.030936  -0.038133
     4  C   -0.044321  -0.031418   0.550403   4.857532   0.524194  -0.038035
     5  C   -0.046956  -0.041076  -0.030936   0.524194   4.794080   0.563277
     6  C    0.536537  -0.046120  -0.038133  -0.038035   0.563277   4.843122
     7  H    0.351037  -0.037776   0.003805   0.000673   0.007123  -0.047394
     8  H   -0.030884   0.003498   0.000326   0.003579  -0.035932   0.355335
     9  H    0.008616   0.001162   0.004712  -0.042193   0.369945  -0.052814
    10  H    0.000610   0.004198  -0.041474   0.366602  -0.040239   0.004142
    11  H    0.005362  -0.045946   0.385387  -0.050280   0.006372   0.000750
    12  H   -0.045448   0.382839  -0.049394   0.005520   0.000201   0.005958
               7          8          9         10         11         12
     1  C    0.351037  -0.030884   0.008616   0.000610   0.005362  -0.045448
     2  C   -0.037776   0.003498   0.001162   0.004198  -0.045946   0.382839
     3  C    0.003805   0.000326   0.004712  -0.041474   0.385387  -0.049394
     4  C    0.000673   0.003579  -0.042193   0.366602  -0.050280   0.005520
     5  C    0.007123  -0.035932   0.369945  -0.040239   0.006372   0.000201
     6  C   -0.047394   0.355335  -0.052814   0.004142   0.000750   0.005958
     7  H    0.670612  -0.008587  -0.000515   0.000015  -0.000155  -0.006238
     8  H   -0.008587   0.636981  -0.008315  -0.000125   0.000017  -0.000139
     9  H   -0.000515  -0.008315   0.647296  -0.005155  -0.000273   0.000019
    10  H    0.000015  -0.000125  -0.005155   0.632261  -0.006981  -0.000196
    11  H   -0.000155   0.000017  -0.000273  -0.006981   0.641574  -0.005673
    12  H   -0.006238  -0.000139   0.000019  -0.000196  -0.005673   0.627224
 Mulliken charges:
               1
     1  C   -0.073241
     2  C   -0.080186
     3  C   -0.058321
     4  C   -0.102256
     5  C   -0.070051
     6  C   -0.086624
     7  H    0.067400
     8  H    0.084248
     9  H    0.077515
    10  H    0.086343
    11  H    0.069847
    12  H    0.085327
 Sum of Mulliken charges =  -0.00000
 Mulliken charges with hydrogens summed into heavy atoms:
               1
     1  C   -0.005841
     2  C    0.005141
     3  C    0.011526
     4  C   -0.015913
     5  C    0.007464
     6  C   -0.002377
 Electronic spatial extent (au):  <R**2>=            456.5223
 Charge=             -0.0000 electrons
 Dipole moment (field-independent basis, Debye):
    X=             -0.1227    Y=             -0.0347    Z=              0.3719  Tot=              0.3931
 Quadrupole moment (field-independent basis, Debye-Ang):
   XX=            -31.0352   YY=            -32.5309   ZZ=            -38.2572
   XY=             -0.4913   XZ=              0.4092   YZ=              0.1493
 Traceless Quadrupole moment (field-independent basis, Debye-Ang):
   XX=              2.9059   YY=              1.4102   ZZ=             -4.3161
   XY=             -0.4913   XZ=              0.4092   YZ=              0.1493
 Octapole moment (field-independent basis, Debye-Ang**2):
  XXX=             -0.7239  YYY=              0.4925  ZZZ=              0.4596  XYY=             -1.6766
  XXY=             -1.1793  XXZ=              2.9568  XZZ=             -0.4109  YZZ=              0.0971
  YYZ=              0.4194  XYZ=              0.0915
 Hexadecapole moment (field-independent basis, Debye-Ang**3):
 XXXX=           -275.3506 YYYY=           -268.8909 ZZZZ=            -41.4993 XXXY=             -1.6955
 XXXZ=              1.7721 YYYX=             -3.9522 YYYZ=              0.3899 ZZZX=             -0.1204
 ZZZY=              0.1322 XXYY=            -90.0410 XXZZ=            -61.0832 YYZZ=            -58.3631
 XXYZ=              0.7965 YYXZ=              1.7414 ZZXY=             -0.6953
 N-N= 2.037508593228D+02 E-N=-9.448702858827D+02  KE= 2.301551541929D+02
 1\1\GINC-DESKTOP-PRN5QE3\SP\RB3LYP TD-FC\6-31G(d,p)\C6H6\SHOHEI\10-Nov
 -2023\0\\# TD=(NStates=1) B3LYP/6-31G(d,p)\\ABSSPCT\\0,1\C,0,-0.255223
 0863,1.3149040714,0.018033081\C,0,1.0555650224,0.9456988279,0.06851995
 05\C,0,1.3550436587,-0.4977972737,-0.0409075958\C,0,0.268565983,-1.369
 9455783,-0.0466142395\C,0,-1.0547903656,-0.8646109348,0.1016808711\C,0
 ,-1.3281846314,0.4616871091,-0.0511320565\H,0,-0.6159967983,2.41301739
 4,-0.2710824338\H,0,-2.4541450677,0.8610651903,-0.3102158423\H,0,-1.91
 52006128,-1.3792619151,-0.0151389856\H,0,0.4617871157,-2.4690637359,0.
 0283498372\H,0,2.1845853516,-0.8721886642,-0.2501662983\H,0,1.82175789
 15,1.5941903143,0.0762641307\\Version=EM64L-G16RevB.01\State=1-A\HF=-2
 32.1831637\RMSD=3.420e-09\PG=C01 [X(C6H6)]\\@


 NOTHING WILL BE ATTEMPTED IF ALL POSSIBLE OBJECTIONS
 MUST FIRST BE OVERCOME.

                               -- THE GOLDEN PRINCIPLE,
                    PAUL DICKSON'S "THE OFFICIAL RULES"
 Job cpu time:       0 days  0 hours  3 minutes 12.4 seconds.
 Elapsed time:       0 days  0 hours  0 minutes 48.8 seconds.
 File lengths (MBytes):  RWF=    116 Int=      0 D2E=      0 Chk=      3 Scr=      1
 Normal termination of Gaussian 16 at Fri Nov 10 18:15:12 2023.
