 Entering Gaussian System, Link 0=g16
 Input=Geometry-216-.com
 Output=Geometry-216-.log
 Initial command:
 /home/shohei/gaussian/g16/l1.exe "/home/shohei/gaussian/scratch/Gau-9645.inp" -scrdir="/home/shohei/gaussian/scratch/"
 Entering Link 1 = /home/shohei/gaussian/g16/l1.exe PID=      9647.
  
 Copyright (c) 1988-2017, Gaussian, Inc.  All Rights Reserved.
  
 This is part of the Gaussian(R) 16 program.  It is based on
 the Gaussian(R) 09 system (copyright 2009, Gaussian, Inc.),
 the Gaussian(R) 03 system (copyright 2003, Gaussian, Inc.),
 the Gaussian(R) 98 system (copyright 1998, Gaussian, Inc.),
 the Gaussian(R) 94 system (copyright 1995, Gaussian, Inc.),
 the Gaussian 92(TM) system (copyright 1992, Gaussian, Inc.),
 the Gaussian 90(TM) system (copyright 1990, Gaussian, Inc.),
 the Gaussian 88(TM) system (copyright 1988, Gaussian, Inc.),
 the Gaussian 86(TM) system (copyright 1986, Carnegie Mellon
 University), and the Gaussian 82(TM) system (copyright 1983,
 Carnegie Mellon University). Gaussian is a federally registered
 trademark of Gaussian, Inc.
  
 This software contains proprietary and confidential information,
 including trade secrets, belonging to Gaussian, Inc.
  
 This software is provided under written license and may be
 used, copied, transmitted, or stored only in accord with that
 written license.
  
 The following legend is applicable only to US Government
 contracts under FAR:
  
                    RESTRICTED RIGHTS LEGEND
  
 Use, reproduction and disclosure by the US Government is
 subject to restrictions as set forth in subparagraphs (a)
 and (c) of the Commercial Computer Software - Restricted
 Rights clause in FAR 52.227-19.
  
 Gaussian, Inc.
 340 Quinnipiac St., Bldg. 40, Wallingford CT 06492
  
  
 ---------------------------------------------------------------
 Warning -- This program may not be used in any manner that
 competes with the business of Gaussian, Inc. or will provide
 assistance to any competitor of Gaussian, Inc.  The licensee
 of this program is prohibited from giving any competitor of
 Gaussian, Inc. access to this program.  By using this program,
 the user acknowledges that Gaussian, Inc. is engaged in the
 business of creating and licensing software in the field of
 computational chemistry and represents and warrants to the
 licensee that it is not a competitor of Gaussian, Inc. and that
 it will not use this program in any manner prohibited above.
 ---------------------------------------------------------------
  

 Cite this work as:
 Gaussian 16, Revision B.01,
 M. J. Frisch, G. W. Trucks, H. B. Schlegel, G. E. Scuseria, 
 M. A. Robb, J. R. Cheeseman, G. Scalmani, V. Barone, 
 G. A. Petersson, H. Nakatsuji, X. Li, M. Caricato, A. V. Marenich, 
 J. Bloino, B. G. Janesko, R. Gomperts, B. Mennucci, H. P. Hratchian, 
 J. V. Ortiz, A. F. Izmaylov, J. L. Sonnenberg, D. Williams-Young, 
 F. Ding, F. Lipparini, F. Egidi, J. Goings, B. Peng, A. Petrone, 
 T. Henderson, D. Ranasinghe, V. G. Zakrzewski, J. Gao, N. Rega, 
 G. Zheng, W. Liang, M. Hada, M. Ehara, K. Toyota, R. Fukuda, 
 J. Hasegawa, M. Ishida, T. Nakajima, Y. Honda, O. Kitao, H. Nakai, 
 T. Vreven, K. Throssell, J. A. Montgomery, Jr., J. E. Peralta, 
 F. Ogliaro, M. J. Bearpark, J. J. Heyd, E. N. Brothers, K. N. Kudin, 
 V. N. Staroverov, T. A. Keith, R. Kobayashi, J. Normand, 
 K. Raghavachari, A. P. Rendell, J. C. Burant, S. S. Iyengar, 
 J. Tomasi, M. Cossi, J. M. Millam, M. Klene, C. Adamo, R. Cammi, 
 J. W. Ochterski, R. L. Martin, K. Morokuma, O. Farkas, 
 J. B. Foresman, and D. J. Fox, Gaussian, Inc., Wallingford CT, 2016.
 
 ******************************************
 Gaussian 16:  EM64L-G16RevB.01 20-Dec-2017
                10-Nov-2023 
 ******************************************
 %nproc=4
 Will use up to    4 processors via shared memory.
 %Mem=2Gb
 ---------------------------------
 # TD=(NStates=1) B3LYP/6-31G(d,p)
 ---------------------------------
 1/38=1,172=1/1;
 2/12=2,17=6,18=5,40=1/2;
 3/5=1,6=6,7=101,11=9,25=1,30=1,74=-5/1,2,3,8;
 4//1;
 5/5=2,38=5/2;
 8/6=1,10=2,108=1/1;
 9/41=1,42=1,70=2/14;
 6/7=2,8=2,9=2,10=2/1;
 99/5=1,9=1/99;
 -------
 ABSSPCT
 -------
 Symbolic Z-matrix:
 Charge =  0 Multiplicity = 1
 6                    -0.26532   1.39934  -0.00341 
 6                     1.07629   0.94158  -0.01289 
 6                     1.32262  -0.47475  -0.02574 
 6                     0.24489  -1.41061   0.04366 
 6                    -1.07527  -0.9152    0.00455 
 6                    -1.30403   0.43366  -0.02013 
 1                    -0.56673   2.47116   0.17345 
 1                    -2.36231   0.92869  -0.03344 
 1                    -2.01128  -1.47374  -0.03576 
 1                     0.48876  -2.40883   0.01269 
 1                     2.55273  -0.76857  -0.1513 
 1                     1.93967   1.5403    0.2211 
 
                          Input orientation:                          
 ---------------------------------------------------------------------
 Center     Atomic      Atomic             Coordinates (Angstroms)
 Number     Number       Type             X           Y           Z
 ---------------------------------------------------------------------
      1          6           0       -0.265322    1.399345   -0.003413
      2          6           0        1.076290    0.941580   -0.012887
      3          6           0        1.322615   -0.474749   -0.025744
      4          6           0        0.244892   -1.410612    0.043661
      5          6           0       -1.075268   -0.915197    0.004553
      6          6           0       -1.304031    0.433655   -0.020126
      7          1           0       -0.566732    2.471158    0.173446
      8          1           0       -2.362309    0.928690   -0.033436
      9          1           0       -2.011283   -1.473737   -0.035761
     10          1           0        0.488757   -2.408833    0.012690
     11          1           0        2.552725   -0.768572   -0.151304
     12          1           0        1.939668    1.540305    0.221097
 ---------------------------------------------------------------------
                    Distance matrix (angstroms):
                    1          2          3          4          5
     1  C    0.000000
     2  C    1.417590   0.000000
     3  C    2.456476   1.437647   0.000000
     4  C    2.856290   2.495442   1.429036   0.000000
     5  C    2.452178   2.842029   2.438187   1.410598   0.000000
     6  C    1.418362   2.433920   2.779298   2.409264   1.368336
     7  H    1.127346   2.252521   3.505378   3.967835   3.428489
     8  H    2.149365   3.438685   3.943142   3.503681   2.248964
     9  H    3.362146   3.920126   3.480368   2.258455   1.090742
    10  H    3.882153   3.401634   2.106532   1.028044   2.162681
    11  H    3.558529   2.263546   1.270932   2.403398   3.634298
    12  H    2.220868   1.076402   2.121821   3.407588   3.894383
                    6          7          8          9         10
     6  C    0.000000
     7  H    2.175430   0.000000
     8  H    1.168414   2.376153   0.000000
     9  H    2.034354   4.206269   2.427938   0.000000
    10  H    3.360789   4.995419   4.389734   2.669635   0.000000
    11  H    4.041921   4.509138   5.201169   4.619608   2.641460
    12  H    3.435759   2.674097   4.352685   4.975986   4.212394
                   11         12
    11  H    0.000000
    12  H    2.417733   0.000000
 Stoichiometry    C6H6
 Framework group  C1[X(C6H6)]
 Deg. of freedom    30
 Full point group                 C1      NOp   1
 Largest Abelian subgroup         C1      NOp   1
 Largest concise Abelian subgroup C1      NOp   1
                         Standard orientation:                         
 ---------------------------------------------------------------------
 Center     Atomic      Atomic             Coordinates (Angstroms)
 Number     Number       Type             X           Y           Z
 ---------------------------------------------------------------------
      1          6           0       -0.505428    1.328334   -0.016118
      2          6           0        0.895442    1.111345   -0.022532
      3          6           0        1.384855   -0.240431   -0.024982
      4          6           0        0.486660   -1.349271    0.051596
      5          6           0       -0.899597   -1.091826    0.009146
      6          6           0       -1.359917    0.196294   -0.025444
      7          1           0       -0.989211    2.332476    0.152889
      8          1           0       -2.488261    0.499197   -0.042157
      9          1           0       -1.723899   -1.805233   -0.026814
     10          1           0        0.900799   -2.289911    0.027943
     11          1           0        2.647478   -0.316276   -0.148664
     12          1           0        1.641011    1.853078    0.206813
 ---------------------------------------------------------------------
 Rotational constants (GHZ):           5.5497356           5.5136975           2.7701705
 Standard basis: 6-31G(d,p) (6D, 7F)
 There are   120 symmetry adapted cartesian basis functions of A   symmetry.
 There are   120 symmetry adapted basis functions of A   symmetry.
   120 basis functions,   210 primitive gaussians,   120 cartesian basis functions
    21 alpha electrons       21 beta electrons
       nuclear repulsion energy       200.2902502866 Hartrees.
 NAtoms=   12 NActive=   12 NUniq=   12 SFac= 1.00D+00 NAtFMM=   60 NAOKFM=F Big=F
 Integral buffers will be    131072 words long.
 Regular integral format.
 Two-electron integral symmetry is turned on.
 One-electron integrals computed using PRISM.
 NBasis=   120 RedAO= T EigKep=  6.81D-04  NBF=   120
 NBsUse=   120 1.00D-06 EigRej= -1.00D+00 NBFU=   120
 ExpMin= 1.61D-01 ExpMax= 3.05D+03 ExpMxC= 4.57D+02 IAcc=3 IRadAn=         5 AccDes= 0.00D+00
 Harris functional with IExCor=  402 and IRadAn=       5 diagonalized for initial guess.
 HarFok:  IExCor=  402 AccDes= 0.00D+00 IRadAn=         5 IDoV= 1 UseB2=F ITyADJ=14
 ICtDFT=  3500011 ScaDFX=  1.000000  1.000000  1.000000  1.000000
 FoFCou: FMM=F IPFlag=           0 FMFlag=      100000 FMFlg1=           0
         NFxFlg=           0 DoJE=T BraDBF=F KetDBF=T FulRan=T
         wScrn=  0.000000 ICntrl=       500 IOpCl=  0 I1Cent=   200000004 NGrid=           0
         NMat0=    1 NMatS0=      1 NMatT0=    0 NMatD0=    1 NMtDS0=    0 NMtDT0=    0
 Petite list used in FoFCou.
 Keep R1 ints in memory in canonical form, NReq=30147728.
 Requested convergence on RMS density matrix=1.00D-08 within 128 cycles.
 Requested convergence on MAX density matrix=1.00D-06.
 Requested convergence on             energy=1.00D-06.
 No special actions if energy rises.
 Integral accuracy reduced to 1.0D-05 until final iterations.
 Initial convergence to 1.0D-05 achieved.  Increase integral accuracy.
 SCF Done:  E(RB3LYP) =  -232.218855614     A.U. after   12 cycles
            NFock= 12  Conv=0.73D-08     -V/T= 2.0120
 DoSCS=F DFT=T ScalE2(SS,OS)=  1.000000  1.000000
 ExpMin= 1.61D-01 ExpMax= 3.05D+03 ExpMxC= 4.57D+02 IAcc=3 IRadAn=         5 AccDes= 0.00D+00
 HarFok:  IExCor=  205 AccDes= 0.00D+00 IRadAn=         5 IDoV=-2 UseB2=F ITyADJ=14
 ICtDFT= 12500011 ScaDFX=  1.000000  1.000000  1.000000  1.000000
 Range of M.O.s used for correlation:     7   120
 NBasis=   120 NAE=    21 NBE=    21 NFC=     6 NFV=     0
 NROrb=    114 NOA=    15 NOB=    15 NVA=    99 NVB=    99
 Keep R1, R2, and R3 ints in memory in canonical form, NReq=84032236.
 Orbital symmetries:
       Occupied  (A) (A) (A) (A) (A) (A) (A) (A) (A) (A) (A) (A)
                 (A) (A) (A) (A) (A) (A) (A) (A) (A)
       Virtual   (A) (A) (A) (A) (A) (A) (A) (A) (A) (A) (A) (A)
                 (A) (A) (A) (A) (A) (A) (A) (A) (A) (A) (A) (A)
                 (A) (A) (A) (A) (A) (A) (A) (A) (A) (A) (A) (A)
                 (A) (A) (A) (A) (A) (A) (A) (A) (A) (A) (A) (A)
                 (A) (A) (A) (A) (A) (A) (A) (A) (A) (A) (A) (A)
                 (A) (A) (A) (A) (A) (A) (A) (A) (A) (A) (A) (A)
                 (A) (A) (A) (A) (A) (A) (A) (A) (A) (A) (A) (A)
                 (A) (A) (A) (A) (A) (A) (A) (A) (A) (A) (A) (A)
                 (A) (A) (A)
     4 initial guesses have been made.
 Convergence on wavefunction:    0.001000000000000
 Iteration     1 Dimension     4 NMult     0 NNew      4
 CISAX will form     4 AO SS matrices at one time.
 Iteration     2 Dimension     6 NMult     4 NNew      2
 Iteration     3 Dimension     8 NMult     6 NNew      2
 Iteration     4 Dimension    10 NMult     8 NNew      2
 Iteration     5 Dimension    12 NMult    10 NNew      2
 ***********************************************************************
 Excited states from <AA,BB:AA,BB> singles matrix:
 ***********************************************************************
 
 Ground to excited state transition densities written to RWF  633
 Ground to excited state transition electric dipole moments (Au):
       state          X           Y           Z        Dip. S.      Osc.
         1         0.0462      0.0852     -0.0030      0.0094      0.0012
 Ground to excited state transition velocity dipole moments (Au):
       state          X           Y           Z        Dip. S.      Osc.
         1        -0.0092     -0.0184      0.0008      0.0004      0.0015
 Ground to excited state transition magnetic dipole moments (Au):
       state          X           Y           Z
         1         0.0250     -0.0042      0.0056
 Ground to excited state transition velocity quadrupole moments (Au):
       state          XX          YY          ZZ          XY          XZ          YZ
         1         0.0032      0.0092     -0.0015     -0.0072      0.0054      0.0140
 <0|del|b> * <b|rxdel|0> + <0|del|b> * <b|delr+rdel|0>
 Rotatory Strengths (R) in cgs (10**-40 erg-esu-cm/Gauss)
       state          XX          YY          ZZ    R(velocity)    E-M Angle
         1         0.3160     -0.6312     -0.2240     -0.1797      106.16
 1/2[<0|r|b>*<b|rxdel|0> + (<0|rxdel|b>*<b|r|0>)*]
 Rotatory Strengths (R) in cgs (10**-40 erg-esu-cm/Gauss)
       state          XX          YY          ZZ     R(length)
         1        -0.8147      0.2502      0.0120     -0.1842
  1/2[<0|del|b>*<b|r|0> + (<0|r|b>*<b|del|0>)*] (Au)
       state          X           Y           Z        Dip. S.   Osc.(frdel)
         1        -0.0004     -0.0016     -0.0000      0.0020      0.0013

 Excitation energies and oscillator strengths:
 
 Excited State   1:      Singlet-A      5.3074 eV  233.61 nm  f=0.0012  <S**2>=0.000
      20 -> 22         0.30958
      20 -> 23        -0.37095
      21 -> 22         0.42696
      21 -> 23         0.28951
 This state for optimization and/or second-order correction.
 Total Energy, E(TD-HF/TD-DFT) =  -232.023812467    
 Copying the excited state density for this state as the 1-particle RhoCI density.
 SavETr:  write IOETrn=   770 NScale= 10 NData=  16 NLR=1 NState=    1 LETran=      28.

 **********************************************************************

            Population analysis using the SCF Density.

 **********************************************************************

 Orbital symmetries:
       Occupied  (A) (A) (A) (A) (A) (A) (A) (A) (A) (A) (A) (A)
                 (A) (A) (A) (A) (A) (A) (A) (A) (A)
       Virtual   (A) (A) (A) (A) (A) (A) (A) (A) (A) (A) (A) (A)
                 (A) (A) (A) (A) (A) (A) (A) (A) (A) (A) (A) (A)
                 (A) (A) (A) (A) (A) (A) (A) (A) (A) (A) (A) (A)
                 (A) (A) (A) (A) (A) (A) (A) (A) (A) (A) (A) (A)
                 (A) (A) (A) (A) (A) (A) (A) (A) (A) (A) (A) (A)
                 (A) (A) (A) (A) (A) (A) (A) (A) (A) (A) (A) (A)
                 (A) (A) (A) (A) (A) (A) (A) (A) (A) (A) (A) (A)
                 (A) (A) (A) (A) (A) (A) (A) (A) (A) (A) (A) (A)
                 (A) (A) (A)
 The electronic state is 1-A.
 Alpha  occ. eigenvalues --  -10.21224 -10.19772 -10.19514 -10.19468 -10.19448
 Alpha  occ. eigenvalues --  -10.19330  -0.84136  -0.73991  -0.73271  -0.60702
 Alpha  occ. eigenvalues --   -0.57921  -0.51081  -0.45412  -0.44145  -0.41841
 Alpha  occ. eigenvalues --   -0.39660  -0.35734  -0.33754  -0.33143  -0.24777
 Alpha  occ. eigenvalues --   -0.24421
 Alpha virt. eigenvalues --   -0.00808  -0.00141   0.06931   0.11012   0.14328
 Alpha virt. eigenvalues --    0.14807   0.17263   0.17395   0.18164   0.27309
 Alpha virt. eigenvalues --    0.29984   0.30552   0.31727   0.47058   0.51811
 Alpha virt. eigenvalues --    0.52718   0.53119   0.54569   0.58399   0.59722
 Alpha virt. eigenvalues --    0.59923   0.60272   0.61509   0.62516   0.63064
 Alpha virt. eigenvalues --    0.66097   0.66598   0.73390   0.75581   0.79197
 Alpha virt. eigenvalues --    0.81333   0.83353   0.85800   0.91501   0.92128
 Alpha virt. eigenvalues --    0.92329   0.94875   1.05114   1.07625   1.09453
 Alpha virt. eigenvalues --    1.10328   1.17721   1.26063   1.29909   1.33079
 Alpha virt. eigenvalues --    1.33976   1.41730   1.43139   1.47183   1.53064
 Alpha virt. eigenvalues --    1.70310   1.73922   1.74938   1.78614   1.81112
 Alpha virt. eigenvalues --    1.90565   1.94407   1.96132   1.99473   1.99567
 Alpha virt. eigenvalues --    2.01948   2.04468   2.08449   2.21819   2.24010
 Alpha virt. eigenvalues --    2.26492   2.32079   2.33750   2.38256   2.38715
 Alpha virt. eigenvalues --    2.41028   2.42012   2.43453   2.44735   2.47545
 Alpha virt. eigenvalues --    2.48471   2.51592   2.57405   2.61478   2.66707
 Alpha virt. eigenvalues --    2.69269   2.73268   2.78044   2.90190   2.98425
 Alpha virt. eigenvalues --    3.03270   3.16154   3.19365   3.23931   3.33661
 Alpha virt. eigenvalues --    3.37558   3.56342   3.86617   4.10774   4.15960
 Alpha virt. eigenvalues --    4.16943   4.41353   4.44866   4.78789
          Condensed to atoms (all electrons):
               1          2          3          4          5          6
     1  C    4.827022   0.547276  -0.038190  -0.034315  -0.042256   0.536016
     2  C    0.547276   4.831776   0.516030  -0.037533  -0.036847  -0.037254
     3  C   -0.038190   0.516030   4.883542   0.537405  -0.031207  -0.038258
     4  C   -0.034315  -0.037533   0.537405   4.807432   0.533001  -0.036364
     5  C   -0.042256  -0.036847  -0.031207   0.533001   4.796331   0.558472
     6  C    0.536016  -0.037254  -0.038258  -0.036364   0.558472   4.818514
     7  H    0.361078  -0.037951   0.003847   0.000413   0.004946  -0.038485
     8  H   -0.042582   0.004717   0.000430   0.003993  -0.035588   0.358249
     9  H    0.005780   0.000348   0.003851  -0.039268   0.369407  -0.045191
    10  H    0.000567   0.004936  -0.045007   0.377326  -0.042891   0.004694
    11  H    0.003362  -0.036018   0.343311  -0.027354   0.002440   0.000419
    12  H   -0.037693   0.367817  -0.041680   0.004341   0.000608   0.004196
               7          8          9         10         11         12
     1  C    0.361078  -0.042582   0.005780   0.000567   0.003362  -0.037693
     2  C   -0.037951   0.004717   0.000348   0.004936  -0.036018   0.367817
     3  C    0.003847   0.000430   0.003851  -0.045007   0.343311  -0.041680
     4  C    0.000413   0.003993  -0.039268   0.377326  -0.027354   0.004341
     5  C    0.004946  -0.035588   0.369407  -0.042891   0.002440   0.000608
     6  C   -0.038485   0.358249  -0.045191   0.004694   0.000419   0.004196
     7  H    0.628785  -0.007187  -0.000244   0.000014  -0.000118  -0.004062
     8  H   -0.007187   0.646398  -0.007679  -0.000139   0.000007  -0.000171
     9  H   -0.000244  -0.007679   0.625430  -0.004600  -0.000079   0.000015
    10  H    0.000014  -0.000139  -0.004600   0.618063  -0.003789  -0.000224
    11  H   -0.000118   0.000007  -0.000079  -0.003789   0.650263  -0.005762
    12  H   -0.004062  -0.000171   0.000015  -0.000224  -0.005762   0.619791
 Mulliken charges:
               1
     1  C   -0.086065
     2  C   -0.087297
     3  C   -0.094073
     4  C   -0.089077
     5  C   -0.076416
     6  C   -0.085008
     7  H    0.088963
     8  H    0.079551
     9  H    0.092232
    10  H    0.091049
    11  H    0.073317
    12  H    0.092824
 Sum of Mulliken charges =  -0.00000
 Mulliken charges with hydrogens summed into heavy atoms:
               1
     1  C    0.002898
     2  C    0.005527
     3  C   -0.020756
     4  C    0.001972
     5  C    0.015816
     6  C   -0.005457
 Electronic spatial extent (au):  <R**2>=            470.2465
 Charge=             -0.0000 electrons
 Dipole moment (field-independent basis, Debye):
    X=             -0.0881    Y=              0.0054    Z=              0.1250  Tot=              0.1530
 Quadrupole moment (field-independent basis, Debye-Ang):
   XX=            -31.4554   YY=            -31.9953   ZZ=            -38.8874
   XY=             -0.0180   XZ=              0.0179   YZ=              0.6198
 Traceless Quadrupole moment (field-independent basis, Debye-Ang):
   XX=              2.6573   YY=              2.1174   ZZ=             -4.7747
   XY=             -0.0180   XZ=              0.0179   YZ=              0.6198
 Octapole moment (field-independent basis, Debye-Ang**2):
  XXX=             -0.0710  YYY=             -0.6394  ZZZ=              0.2425  XYY=             -0.6412
  XXY=              0.7354  XXZ=             -0.2429  XZZ=             -0.2587  YZZ=             -0.1016
  YYZ=              1.2775  XYZ=              0.2462
 Hexadecapole moment (field-independent basis, Debye-Ang**3):
 XXXX=           -284.2245 YYYY=           -279.6120 ZZZZ=            -41.1707 XXXY=              2.5273
 XXXZ=             -0.6690 YYYX=             -2.6493 YYYZ=              3.3755 ZZZX=              0.1899
 ZZZY=              0.6187 XXYY=            -92.2401 XXZZ=            -64.1279 YYZZ=            -61.2773
 XXYZ=              1.7131 YYXZ=              0.6063 ZZXY=              0.3395
 N-N= 2.002902502866D+02 E-N=-9.374591279862D+02  KE= 2.294585512100D+02
 1\1\GINC-DESKTOP-PRN5QE3\SP\RB3LYP TD-FC\6-31G(d,p)\C6H6\SHOHEI\10-Nov
 -2023\0\\# TD=(NStates=1) B3LYP/6-31G(d,p)\\ABSSPCT\\0,1\C,0,-0.265322
 3819,1.3993449029,-0.0034132238\C,0,1.0762901513,0.9415802409,-0.01288
 69129\C,0,1.3226154565,-0.4747488902,-0.025744016\C,0,0.2448920654,-1.
 4106119576,0.0436609556\C,0,-1.0752678239,-0.9151969825,0.0045528993\C
 ,0,-1.3040306244,0.4336553169,-0.0201260362\H,0,-0.5667317894,2.471157
 9621,0.1734460696\H,0,-2.3623092452,0.9286903763,-0.0334358752\H,0,-2.
 0112830925,-1.4737374362,-0.0357608702\H,0,0.4887570948,-2.4088327013,
 0.0126900737\H,0,2.552725188,-0.7685722645,-0.1513040799\H,0,1.9396676
 717,1.5403048007,0.2210967602\\Version=EM64L-G16RevB.01\State=1-A\HF=-
 232.2188556\RMSD=7.280e-09\PG=C01 [X(C6H6)]\\@


 THE PROMISED LAND ALWAYS LIES ON THE OTHER SIDE OF A WILDERNESS.

                         -- HAVELOCK ELLIS
 Job cpu time:       0 days  0 hours  3 minutes  4.4 seconds.
 Elapsed time:       0 days  0 hours  0 minutes 46.6 seconds.
 File lengths (MBytes):  RWF=    116 Int=      0 D2E=      0 Chk=      3 Scr=      1
 Normal termination of Gaussian 16 at Fri Nov 10 19:05:38 2023.
