 Entering Gaussian System, Link 0=g16
 Input=Geometry-185-.com
 Output=Geometry-185-.log
 Initial command:
 /home/shohei/gaussian/g16/l1.exe "/home/shohei/gaussian/scratch/Gau-7041.inp" -scrdir="/home/shohei/gaussian/scratch/"
 Entering Link 1 = /home/shohei/gaussian/g16/l1.exe PID=      7043.
  
 Copyright (c) 1988-2017, Gaussian, Inc.  All Rights Reserved.
  
 This is part of the Gaussian(R) 16 program.  It is based on
 the Gaussian(R) 09 system (copyright 2009, Gaussian, Inc.),
 the Gaussian(R) 03 system (copyright 2003, Gaussian, Inc.),
 the Gaussian(R) 98 system (copyright 1998, Gaussian, Inc.),
 the Gaussian(R) 94 system (copyright 1995, Gaussian, Inc.),
 the Gaussian 92(TM) system (copyright 1992, Gaussian, Inc.),
 the Gaussian 90(TM) system (copyright 1990, Gaussian, Inc.),
 the Gaussian 88(TM) system (copyright 1988, Gaussian, Inc.),
 the Gaussian 86(TM) system (copyright 1986, Carnegie Mellon
 University), and the Gaussian 82(TM) system (copyright 1983,
 Carnegie Mellon University). Gaussian is a federally registered
 trademark of Gaussian, Inc.
  
 This software contains proprietary and confidential information,
 including trade secrets, belonging to Gaussian, Inc.
  
 This software is provided under written license and may be
 used, copied, transmitted, or stored only in accord with that
 written license.
  
 The following legend is applicable only to US Government
 contracts under FAR:
  
                    RESTRICTED RIGHTS LEGEND
  
 Use, reproduction and disclosure by the US Government is
 subject to restrictions as set forth in subparagraphs (a)
 and (c) of the Commercial Computer Software - Restricted
 Rights clause in FAR 52.227-19.
  
 Gaussian, Inc.
 340 Quinnipiac St., Bldg. 40, Wallingford CT 06492
  
  
 ---------------------------------------------------------------
 Warning -- This program may not be used in any manner that
 competes with the business of Gaussian, Inc. or will provide
 assistance to any competitor of Gaussian, Inc.  The licensee
 of this program is prohibited from giving any competitor of
 Gaussian, Inc. access to this program.  By using this program,
 the user acknowledges that Gaussian, Inc. is engaged in the
 business of creating and licensing software in the field of
 computational chemistry and represents and warrants to the
 licensee that it is not a competitor of Gaussian, Inc. and that
 it will not use this program in any manner prohibited above.
 ---------------------------------------------------------------
  

 Cite this work as:
 Gaussian 16, Revision B.01,
 M. J. Frisch, G. W. Trucks, H. B. Schlegel, G. E. Scuseria, 
 M. A. Robb, J. R. Cheeseman, G. Scalmani, V. Barone, 
 G. A. Petersson, H. Nakatsuji, X. Li, M. Caricato, A. V. Marenich, 
 J. Bloino, B. G. Janesko, R. Gomperts, B. Mennucci, H. P. Hratchian, 
 J. V. Ortiz, A. F. Izmaylov, J. L. Sonnenberg, D. Williams-Young, 
 F. Ding, F. Lipparini, F. Egidi, J. Goings, B. Peng, A. Petrone, 
 T. Henderson, D. Ranasinghe, V. G. Zakrzewski, J. Gao, N. Rega, 
 G. Zheng, W. Liang, M. Hada, M. Ehara, K. Toyota, R. Fukuda, 
 J. Hasegawa, M. Ishida, T. Nakajima, Y. Honda, O. Kitao, H. Nakai, 
 T. Vreven, K. Throssell, J. A. Montgomery, Jr., J. E. Peralta, 
 F. Ogliaro, M. J. Bearpark, J. J. Heyd, E. N. Brothers, K. N. Kudin, 
 V. N. Staroverov, T. A. Keith, R. Kobayashi, J. Normand, 
 K. Raghavachari, A. P. Rendell, J. C. Burant, S. S. Iyengar, 
 J. Tomasi, M. Cossi, J. M. Millam, M. Klene, C. Adamo, R. Cammi, 
 J. W. Ochterski, R. L. Martin, K. Morokuma, O. Farkas, 
 J. B. Foresman, and D. J. Fox, Gaussian, Inc., Wallingford CT, 2016.
 
 ******************************************
 Gaussian 16:  EM64L-G16RevB.01 20-Dec-2017
                10-Nov-2023 
 ******************************************
 %nproc=4
 Will use up to    4 processors via shared memory.
 %Mem=2Gb
 ---------------------------------
 # TD=(NStates=1) B3LYP/6-31G(d,p)
 ---------------------------------
 1/38=1,172=1/1;
 2/12=2,17=6,18=5,40=1/2;
 3/5=1,6=6,7=101,11=9,25=1,30=1,74=-5/1,2,3,8;
 4//1;
 5/5=2,38=5/2;
 8/6=1,10=2,108=1/1;
 9/41=1,42=1,70=2/14;
 6/7=2,8=2,9=2,10=2/1;
 99/5=1,9=1/99;
 -------
 ABSSPCT
 -------
 Symbolic Z-matrix:
 Charge =  0 Multiplicity = 1
 6                    -0.23211   1.4151   -0.01501 
 6                     1.08411   0.9539   -0.02502 
 6                     1.25823  -0.54165   0.0392 
 6                     0.24193  -1.37005  -0.0411 
 6                    -1.037    -0.95602  -0.01907 
 6                    -1.30717   0.45221   0.05373 
 1                    -0.65242   2.45698  -0.12942 
 1                    -2.24427   0.92026   0.02624 
 1                    -2.04779  -1.54007   0.04647 
 1                     0.64402  -2.30578  -0.00935 
 1                     2.40762  -0.6902    0.17404 
 1                     1.85492   1.69625   0.03277 
 
                          Input orientation:                          
 ---------------------------------------------------------------------
 Center     Atomic      Atomic             Coordinates (Angstroms)
 Number     Number       Type             X           Y           Z
 ---------------------------------------------------------------------
      1          6           0       -0.232107    1.415096   -0.015007
      2          6           0        1.084108    0.953902   -0.025021
      3          6           0        1.258233   -0.541652    0.039200
      4          6           0        0.241926   -1.370046   -0.041095
      5          6           0       -1.037000   -0.956023   -0.019072
      6          6           0       -1.307169    0.452207    0.053727
      7          1           0       -0.652418    2.456980   -0.129425
      8          1           0       -2.244269    0.920258    0.026238
      9          1           0       -2.047788   -1.540067    0.046472
     10          1           0        0.644019   -2.305778   -0.009351
     11          1           0        2.407623   -0.690197    0.174043
     12          1           0        1.854921    1.696246    0.032772
 ---------------------------------------------------------------------
                    Distance matrix (angstroms):
                    1          2          3          4          5
     1  C    0.000000
     2  C    1.394711   0.000000
     3  C    2.460267   1.507026   0.000000
     4  C    2.825315   2.471895   1.313607   0.000000
     5  C    2.504011   2.854285   2.333065   1.344452   0.000000
     6  C    1.444866   2.444607   2.751229   2.393594   1.435758
     7  H    1.129281   2.299057   3.559610   3.931130   3.436374
     8  H    2.072526   3.328941   3.795375   3.381004   2.231587
     9  H    3.468929   4.004218   3.453500   2.297686   1.169229
    10  H    3.822634   3.289292   1.868624   1.018961   2.155866
    11  H    3.381741   2.119996   1.166767   2.280071   3.460258
    12  H    2.106422   1.071712   2.316088   3.465452   3.924337
                    6          7          8          9         10
     6  C    0.000000
     7  H    2.116922   0.000000
     8  H    1.047847   2.218047   0.000000
     9  H    2.125494   4.237261   2.468241   0.000000
    10  H    3.378993   4.937513   4.330217   2.799152   0.000000
    11  H    3.888348   4.400076   4.924988   4.537537   2.398757
    12  H    3.398071   2.625219   4.171997   5.070014   4.181418
                   11         12
    11  H    0.000000
    12  H    2.453680   0.000000
 Stoichiometry    C6H6
 Framework group  C1[X(C6H6)]
 Deg. of freedom    30
 Full point group                 C1      NOp   1
 Largest Abelian subgroup         C1      NOp   1
 Largest concise Abelian subgroup C1      NOp   1
                         Standard orientation:                         
 ---------------------------------------------------------------------
 Center     Atomic      Atomic             Coordinates (Angstroms)
 Number     Number       Type             X           Y           Z
 ---------------------------------------------------------------------
      1          6           0        1.403472    0.263733   -0.010980
      2          6           0        0.971769   -1.062380   -0.027643
      3          6           0       -0.519766   -1.270014    0.030114
      4          6           0       -1.370293   -0.272113   -0.049654
      5          6           0       -0.984964    1.015624   -0.021302
      6          6           0        0.416607    1.316815    0.057972
      7          1           0        2.436158    0.707575   -0.119791
      8          1           0        0.863757    2.264204    0.035762
      9          1           0       -1.591636    2.012898    0.045696
     10          1           0       -2.296946   -0.695065   -0.023035
     11          1           0       -0.643170   -2.422928    0.160138
     12          1           0        1.730883   -1.816680    0.030194
 ---------------------------------------------------------------------
 Rotational constants (GHZ):           5.7830933           5.4524101           2.8107923
 Standard basis: 6-31G(d,p) (6D, 7F)
 There are   120 symmetry adapted cartesian basis functions of A   symmetry.
 There are   120 symmetry adapted basis functions of A   symmetry.
   120 basis functions,   210 primitive gaussians,   120 cartesian basis functions
    21 alpha electrons       21 beta electrons
       nuclear repulsion energy       202.1354880425 Hartrees.
 NAtoms=   12 NActive=   12 NUniq=   12 SFac= 1.00D+00 NAtFMM=   60 NAOKFM=F Big=F
 Integral buffers will be    131072 words long.
 Regular integral format.
 Two-electron integral symmetry is turned on.
 One-electron integrals computed using PRISM.
 NBasis=   120 RedAO= T EigKep=  6.28D-04  NBF=   120
 NBsUse=   120 1.00D-06 EigRej= -1.00D+00 NBFU=   120
 ExpMin= 1.61D-01 ExpMax= 3.05D+03 ExpMxC= 4.57D+02 IAcc=3 IRadAn=         5 AccDes= 0.00D+00
 Harris functional with IExCor=  402 and IRadAn=       5 diagonalized for initial guess.
 HarFok:  IExCor=  402 AccDes= 0.00D+00 IRadAn=         5 IDoV= 1 UseB2=F ITyADJ=14
 ICtDFT=  3500011 ScaDFX=  1.000000  1.000000  1.000000  1.000000
 FoFCou: FMM=F IPFlag=           0 FMFlag=      100000 FMFlg1=           0
         NFxFlg=           0 DoJE=T BraDBF=F KetDBF=T FulRan=T
         wScrn=  0.000000 ICntrl=       500 IOpCl=  0 I1Cent=   200000004 NGrid=           0
         NMat0=    1 NMatS0=      1 NMatT0=    0 NMatD0=    1 NMtDS0=    0 NMtDT0=    0
 Petite list used in FoFCou.
 Keep R1 ints in memory in canonical form, NReq=30147728.
 Requested convergence on RMS density matrix=1.00D-08 within 128 cycles.
 Requested convergence on MAX density matrix=1.00D-06.
 Requested convergence on             energy=1.00D-06.
 No special actions if energy rises.
 Integral accuracy reduced to 1.0D-05 until final iterations.
 Initial convergence to 1.0D-05 achieved.  Increase integral accuracy.
 SCF Done:  E(RB3LYP) =  -232.198253084     A.U. after   13 cycles
            NFock= 13  Conv=0.59D-08     -V/T= 2.0103
 DoSCS=F DFT=T ScalE2(SS,OS)=  1.000000  1.000000
 ExpMin= 1.61D-01 ExpMax= 3.05D+03 ExpMxC= 4.57D+02 IAcc=3 IRadAn=         5 AccDes= 0.00D+00
 HarFok:  IExCor=  205 AccDes= 0.00D+00 IRadAn=         5 IDoV=-2 UseB2=F ITyADJ=14
 ICtDFT= 12500011 ScaDFX=  1.000000  1.000000  1.000000  1.000000
 Range of M.O.s used for correlation:     7   120
 NBasis=   120 NAE=    21 NBE=    21 NFC=     6 NFV=     0
 NROrb=    114 NOA=    15 NOB=    15 NVA=    99 NVB=    99
 Keep R1, R2, and R3 ints in memory in canonical form, NReq=84032236.
 Orbital symmetries:
       Occupied  (A) (A) (A) (A) (A) (A) (A) (A) (A) (A) (A) (A)
                 (A) (A) (A) (A) (A) (A) (A) (A) (A)
       Virtual   (A) (A) (A) (A) (A) (A) (A) (A) (A) (A) (A) (A)
                 (A) (A) (A) (A) (A) (A) (A) (A) (A) (A) (A) (A)
                 (A) (A) (A) (A) (A) (A) (A) (A) (A) (A) (A) (A)
                 (A) (A) (A) (A) (A) (A) (A) (A) (A) (A) (A) (A)
                 (A) (A) (A) (A) (A) (A) (A) (A) (A) (A) (A) (A)
                 (A) (A) (A) (A) (A) (A) (A) (A) (A) (A) (A) (A)
                 (A) (A) (A) (A) (A) (A) (A) (A) (A) (A) (A) (A)
                 (A) (A) (A) (A) (A) (A) (A) (A) (A) (A) (A) (A)
                 (A) (A) (A)
     4 initial guesses have been made.
 Convergence on wavefunction:    0.001000000000000
 Iteration     1 Dimension     4 NMult     0 NNew      4
 CISAX will form     4 AO SS matrices at one time.
 New state      1 was old state      3
 Iteration     2 Dimension     6 NMult     4 NNew      2
 Iteration     3 Dimension     8 NMult     6 NNew      2
 Iteration     4 Dimension    10 NMult     8 NNew      2
 Iteration     5 Dimension    12 NMult    10 NNew      2
 Iteration     6 Dimension    14 NMult    12 NNew      2
 ***********************************************************************
 Excited states from <AA,BB:AA,BB> singles matrix:
 ***********************************************************************
 
 Ground to excited state transition densities written to RWF  633
 Ground to excited state transition electric dipole moments (Au):
       state          X           Y           Z        Dip. S.      Osc.
         1        -0.0827     -0.0034     -0.0062      0.0069      0.0009
 Ground to excited state transition velocity dipole moments (Au):
       state          X           Y           Z        Dip. S.      Osc.
         1         0.0183     -0.0002      0.0014      0.0003      0.0011
 Ground to excited state transition magnetic dipole moments (Au):
       state          X           Y           Z
         1        -0.0177      0.0026     -0.0276
 Ground to excited state transition velocity quadrupole moments (Au):
       state          XX          YY          ZZ          XY          XZ          YZ
         1        -0.0160     -0.0063      0.0073      0.0202      0.0129     -0.0071
 <0|del|b> * <b|rxdel|0> + <0|del|b> * <b|delr+rdel|0>
 Rotatory Strengths (R) in cgs (10**-40 erg-esu-cm/Gauss)
       state          XX          YY          ZZ    R(velocity)    E-M Angle
         1        -0.0153     -0.9235     -0.3486     -0.4291      127.06
 1/2[<0|r|b>*<b|rxdel|0> + (<0|rxdel|b>*<b|r|0>)*]
 Rotatory Strengths (R) in cgs (10**-40 erg-esu-cm/Gauss)
       state          XX          YY          ZZ     R(length)
         1        -1.0320      0.0061     -0.1211     -0.3823
  1/2[<0|del|b>*<b|r|0> + (<0|r|b>*<b|del|0>)*] (Au)
       state          X           Y           Z        Dip. S.   Osc.(frdel)
         1        -0.0015      0.0000     -0.0000      0.0015      0.0010

 Excitation energies and oscillator strengths:
 
 Excited State   1:      Singlet-A      5.4229 eV  228.63 nm  f=0.0009  <S**2>=0.000
      20 -> 22        -0.48966
      21 -> 22        -0.10070
      21 -> 23         0.49704
 This state for optimization and/or second-order correction.
 Total Energy, E(TD-HF/TD-DFT) =  -231.998966638    
 Copying the excited state density for this state as the 1-particle RhoCI density.
 SavETr:  write IOETrn=   770 NScale= 10 NData=  16 NLR=1 NState=    1 LETran=      28.

 **********************************************************************

            Population analysis using the SCF Density.

 **********************************************************************

 Orbital symmetries:
       Occupied  (A) (A) (A) (A) (A) (A) (A) (A) (A) (A) (A) (A)
                 (A) (A) (A) (A) (A) (A) (A) (A) (A)
       Virtual   (A) (A) (A) (A) (A) (A) (A) (A) (A) (A) (A) (A)
                 (A) (A) (A) (A) (A) (A) (A) (A) (A) (A) (A) (A)
                 (A) (A) (A) (A) (A) (A) (A) (A) (A) (A) (A) (A)
                 (A) (A) (A) (A) (A) (A) (A) (A) (A) (A) (A) (A)
                 (A) (A) (A) (A) (A) (A) (A) (A) (A) (A) (A) (A)
                 (A) (A) (A) (A) (A) (A) (A) (A) (A) (A) (A) (A)
                 (A) (A) (A) (A) (A) (A) (A) (A) (A) (A) (A) (A)
                 (A) (A) (A) (A) (A) (A) (A) (A) (A) (A) (A) (A)
                 (A) (A) (A)
 The electronic state is 1-A.
 Alpha  occ. eigenvalues --  -10.20069 -10.19832 -10.19386 -10.19262 -10.18747
 Alpha  occ. eigenvalues --  -10.17784  -0.84821  -0.75248  -0.72718  -0.60953
 Alpha  occ. eigenvalues --   -0.58610  -0.51683  -0.46052  -0.44675  -0.41948
 Alpha  occ. eigenvalues --   -0.39887  -0.36112  -0.33948  -0.31516  -0.25718
 Alpha  occ. eigenvalues --   -0.23549
 Alpha virt. eigenvalues --   -0.01209   0.00987   0.08205   0.12738   0.13548
 Alpha virt. eigenvalues --    0.15677   0.16517   0.17413   0.19836   0.26089
 Alpha virt. eigenvalues --    0.29341   0.31582   0.32793   0.46437   0.51588
 Alpha virt. eigenvalues --    0.52429   0.54193   0.55345   0.57426   0.59478
 Alpha virt. eigenvalues --    0.60242   0.61085   0.62486   0.64076   0.65215
 Alpha virt. eigenvalues --    0.66236   0.66958   0.73934   0.77873   0.80977
 Alpha virt. eigenvalues --    0.81371   0.85352   0.86300   0.90648   0.92078
 Alpha virt. eigenvalues --    0.93368   0.96955   1.05727   1.09002   1.09512
 Alpha virt. eigenvalues --    1.13491   1.19678   1.26018   1.28083   1.36271
 Alpha virt. eigenvalues --    1.39720   1.41378   1.43811   1.47266   1.49217
 Alpha virt. eigenvalues --    1.70821   1.72750   1.78397   1.82376   1.86513
 Alpha virt. eigenvalues --    1.90100   1.94823   1.96182   1.98517   2.00394
 Alpha virt. eigenvalues --    2.02694   2.03852   2.11102   2.20391   2.26078
 Alpha virt. eigenvalues --    2.27026   2.34734   2.35941   2.38775   2.39469
 Alpha virt. eigenvalues --    2.42379   2.44123   2.46784   2.48667   2.49269
 Alpha virt. eigenvalues --    2.51170   2.54485   2.56893   2.60054   2.69912
 Alpha virt. eigenvalues --    2.73619   2.77696   2.81582   2.93386   2.95692
 Alpha virt. eigenvalues --    3.07962   3.17748   3.26559   3.30492   3.45403
 Alpha virt. eigenvalues --    3.48316   3.62312   3.91964   4.13178   4.16617
 Alpha virt. eigenvalues --    4.20957   4.44141   4.47440   4.83780
          Condensed to atoms (all electrons):
               1          2          3          4          5          6
     1  C    4.815893   0.559924  -0.032368  -0.036994  -0.033200   0.525675
     2  C    0.559924   4.876404   0.496640  -0.034564  -0.040634  -0.040694
     3  C   -0.032368   0.496640   4.857902   0.575244  -0.035292  -0.039913
     4  C   -0.036994  -0.034564   0.575244   4.726801   0.536458  -0.032573
     5  C   -0.033200  -0.040634  -0.035292   0.536458   4.844157   0.537508
     6  C    0.525675  -0.040694  -0.039913  -0.032573   0.537508   4.852489
     7  H    0.357769  -0.037769   0.003895   0.000386   0.005150  -0.044980
     8  H   -0.046469   0.006612   0.000609   0.004587  -0.038562   0.369916
     9  H    0.004806   0.000358   0.003641  -0.034459   0.360391  -0.047209
    10  H    0.000612   0.006605  -0.056257   0.379112  -0.046992   0.004744
    11  H    0.004040  -0.049576   0.360475  -0.031983   0.003812   0.000652
    12  H   -0.043552   0.365483  -0.034417   0.003971   0.000713   0.004739
               7          8          9         10         11         12
     1  C    0.357769  -0.046469   0.004806   0.000612   0.004040  -0.043552
     2  C   -0.037769   0.006612   0.000358   0.006605  -0.049576   0.365483
     3  C    0.003895   0.000609   0.003641  -0.056257   0.360475  -0.034417
     4  C    0.000386   0.004587  -0.034459   0.379112  -0.031983   0.003971
     5  C    0.005150  -0.038562   0.360391  -0.046992   0.003812   0.000713
     6  C   -0.044980   0.369916  -0.047209   0.004744   0.000652   0.004739
     7  H    0.646884  -0.009271  -0.000236   0.000023  -0.000172  -0.004318
     8  H   -0.009271   0.635506  -0.005636  -0.000155   0.000007  -0.000275
     9  H   -0.000236  -0.005636   0.633985  -0.004761  -0.000091   0.000012
    10  H    0.000023  -0.000155  -0.004761   0.637397  -0.008898  -0.000260
    11  H   -0.000172   0.000007  -0.000091  -0.008898   0.634691  -0.003679
    12  H   -0.004318  -0.000275   0.000012  -0.000260  -0.003679   0.621167
 Mulliken charges:
               1
     1  C   -0.076137
     2  C   -0.108788
     3  C   -0.100160
     4  C   -0.055987
     5  C   -0.093511
     6  C   -0.090354
     7  H    0.082639
     8  H    0.083131
     9  H    0.089199
    10  H    0.088829
    11  H    0.090723
    12  H    0.090416
 Sum of Mulliken charges =  -0.00000
 Mulliken charges with hydrogens summed into heavy atoms:
               1
     1  C    0.006503
     2  C   -0.018373
     3  C   -0.009438
     4  C    0.032842
     5  C   -0.004312
     6  C   -0.007223
 Electronic spatial extent (au):  <R**2>=            463.1219
 Charge=             -0.0000 electrons
 Dipole moment (field-independent basis, Debye):
    X=              0.1264    Y=             -0.0025    Z=              0.0674  Tot=              0.1433
 Quadrupole moment (field-independent basis, Debye-Ang):
   XX=            -32.1099   YY=            -31.1718   ZZ=            -38.6579
   XY=              0.4099   XZ=             -0.2220   YZ=             -0.2811
 Traceless Quadrupole moment (field-independent basis, Debye-Ang):
   XX=              1.8699   YY=              2.8081   ZZ=             -4.6780
   XY=              0.4099   XZ=             -0.2220   YZ=             -0.2811
 Octapole moment (field-independent basis, Debye-Ang**2):
  XXX=              1.4489  YYY=              0.1182  ZZZ=              0.0297  XYY=              0.8709
  XXY=              0.1390  XXZ=             -0.2942  XZZ=             -0.3588  YZZ=             -0.0507
  YYZ=              0.9756  XYZ=             -0.2655
 Hexadecapole moment (field-independent basis, Debye-Ang**3):
 XXXX=           -287.3802 YYYY=           -269.5535 ZZZZ=            -40.6129 XXXY=              4.1799
 XXXZ=             -1.3336 YYYX=             -1.4531 YYYZ=             -1.6649 ZZZX=             -0.1216
 ZZZY=             -0.2201 XXYY=            -89.5263 XXZZ=            -61.8930 YYZZ=            -60.8439
 XXYZ=             -0.4693 YYXZ=             -0.5797 ZZXY=              0.4047
 N-N= 2.021354880425D+02 E-N=-9.414437669226D+02  KE= 2.298375311122D+02
 1\1\GINC-DESKTOP-PRN5QE3\SP\RB3LYP TD-FC\6-31G(d,p)\C6H6\SHOHEI\10-Nov
 -2023\0\\# TD=(NStates=1) B3LYP/6-31G(d,p)\\ABSSPCT\\0,1\C,0,-0.232106
 6609,1.4150958564,-0.0150074177\C,0,1.0841075452,0.9539021174,-0.02502
 05552\C,0,1.2582333778,-0.5416523864,0.039199873\C,0,0.2419257812,-1.3
 700460255,-0.0410951229\C,0,-1.036999843,-0.9560226525,-0.0190720008\C
 ,0,-1.3071692672,0.452207066,0.0537272718\H,0,-0.6524183556,2.45697991
 32,-0.1294246538\H,0,-2.244268778,0.9202575475,0.0262378158\H,0,-2.047
 7876598,-1.5400671423,0.0464717454\H,0,0.6440186243,-2.3057782047,-0.0
 093505346\H,0,2.4076232122,-0.690197058,0.1740434144\H,0,1.8549208336,
 1.6962457843,0.0327724884\\Version=EM64L-G16RevB.01\State=1-A\HF=-232.
 1982531\RMSD=5.939e-09\PG=C01 [X(C6H6)]\\@


 THE REAL VOYAGE OF DISCOVERY CONSISTS NOT IN SEEKING NEW LANDSCAPES 
 BUT IN HAVING NEW EYES.
                                                    -- MARCEL PROUST
 Job cpu time:       0 days  0 hours  3 minutes 37.0 seconds.
 Elapsed time:       0 days  0 hours  0 minutes 54.8 seconds.
 File lengths (MBytes):  RWF=    116 Int=      0 D2E=      0 Chk=      3 Scr=      1
 Normal termination of Gaussian 16 at Fri Nov 10 18:39:49 2023.
