 Entering Gaussian System, Link 0=g16
 Input=Geometry-287-.com
 Output=Geometry-287-.log
 Initial command:
 /home/shohei/gaussian/g16/l1.exe "/home/shohei/gaussian/scratch/Gau-26017.inp" -scrdir="/home/shohei/gaussian/scratch/"
 Entering Link 1 = /home/shohei/gaussian/g16/l1.exe PID=     26019.
  
 Copyright (c) 1988-2017, Gaussian, Inc.  All Rights Reserved.
  
 This is part of the Gaussian(R) 16 program.  It is based on
 the Gaussian(R) 09 system (copyright 2009, Gaussian, Inc.),
 the Gaussian(R) 03 system (copyright 2003, Gaussian, Inc.),
 the Gaussian(R) 98 system (copyright 1998, Gaussian, Inc.),
 the Gaussian(R) 94 system (copyright 1995, Gaussian, Inc.),
 the Gaussian 92(TM) system (copyright 1992, Gaussian, Inc.),
 the Gaussian 90(TM) system (copyright 1990, Gaussian, Inc.),
 the Gaussian 88(TM) system (copyright 1988, Gaussian, Inc.),
 the Gaussian 86(TM) system (copyright 1986, Carnegie Mellon
 University), and the Gaussian 82(TM) system (copyright 1983,
 Carnegie Mellon University). Gaussian is a federally registered
 trademark of Gaussian, Inc.
  
 This software contains proprietary and confidential information,
 including trade secrets, belonging to Gaussian, Inc.
  
 This software is provided under written license and may be
 used, copied, transmitted, or stored only in accord with that
 written license.
  
 The following legend is applicable only to US Government
 contracts under FAR:
  
                    RESTRICTED RIGHTS LEGEND
  
 Use, reproduction and disclosure by the US Government is
 subject to restrictions as set forth in subparagraphs (a)
 and (c) of the Commercial Computer Software - Restricted
 Rights clause in FAR 52.227-19.
  
 Gaussian, Inc.
 340 Quinnipiac St., Bldg. 40, Wallingford CT 06492
  
  
 ---------------------------------------------------------------
 Warning -- This program may not be used in any manner that
 competes with the business of Gaussian, Inc. or will provide
 assistance to any competitor of Gaussian, Inc.  The licensee
 of this program is prohibited from giving any competitor of
 Gaussian, Inc. access to this program.  By using this program,
 the user acknowledges that Gaussian, Inc. is engaged in the
 business of creating and licensing software in the field of
 computational chemistry and represents and warrants to the
 licensee that it is not a competitor of Gaussian, Inc. and that
 it will not use this program in any manner prohibited above.
 ---------------------------------------------------------------
  

 Cite this work as:
 Gaussian 16, Revision B.01,
 M. J. Frisch, G. W. Trucks, H. B. Schlegel, G. E. Scuseria, 
 M. A. Robb, J. R. Cheeseman, G. Scalmani, V. Barone, 
 G. A. Petersson, H. Nakatsuji, X. Li, M. Caricato, A. V. Marenich, 
 J. Bloino, B. G. Janesko, R. Gomperts, B. Mennucci, H. P. Hratchian, 
 J. V. Ortiz, A. F. Izmaylov, J. L. Sonnenberg, D. Williams-Young, 
 F. Ding, F. Lipparini, F. Egidi, J. Goings, B. Peng, A. Petrone, 
 T. Henderson, D. Ranasinghe, V. G. Zakrzewski, J. Gao, N. Rega, 
 G. Zheng, W. Liang, M. Hada, M. Ehara, K. Toyota, R. Fukuda, 
 J. Hasegawa, M. Ishida, T. Nakajima, Y. Honda, O. Kitao, H. Nakai, 
 T. Vreven, K. Throssell, J. A. Montgomery, Jr., J. E. Peralta, 
 F. Ogliaro, M. J. Bearpark, J. J. Heyd, E. N. Brothers, K. N. Kudin, 
 V. N. Staroverov, T. A. Keith, R. Kobayashi, J. Normand, 
 K. Raghavachari, A. P. Rendell, J. C. Burant, S. S. Iyengar, 
 J. Tomasi, M. Cossi, J. M. Millam, M. Klene, C. Adamo, R. Cammi, 
 J. W. Ochterski, R. L. Martin, K. Morokuma, O. Farkas, 
 J. B. Foresman, and D. J. Fox, Gaussian, Inc., Wallingford CT, 2016.
 
 ******************************************
 Gaussian 16:  EM64L-G16RevB.01 20-Dec-2017
                10-Nov-2023 
 ******************************************
 %nproc=4
 Will use up to    4 processors via shared memory.
 %Mem=2Gb
 ---------------------------------
 # TD=(NStates=1) B3LYP/6-31G(d,p)
 ---------------------------------
 1/38=1,172=1/1;
 2/12=2,17=6,18=5,40=1/2;
 3/5=1,6=6,7=101,11=9,25=1,30=1,74=-5/1,2,3,8;
 4//1;
 5/5=2,38=5/2;
 8/6=1,10=2,108=1/1;
 9/41=1,42=1,70=2/14;
 6/7=2,8=2,9=2,10=2/1;
 99/5=1,9=1/99;
 -------
 ABSSPCT
 -------
 Symbolic Z-matrix:
 Charge =  0 Multiplicity = 1
 6                    -0.25745   1.30835  -0.07622 
 6                     1.10185   0.91913  -0.03186 
 6                     1.40034  -0.47788   0.04877 
 6                     0.25168  -1.24824  -0.0213 
 6                    -1.1387   -0.87711  -0.00337 
 6                    -1.36021   0.40746   0.09508 
 1                    -0.49031   2.35534   0.18198 
 1                    -2.49607   0.78741  -0.14621 
 1                    -1.89309  -1.62588  -0.11662 
 1                     0.43395  -2.36383  -0.18202 
 1                     2.43152  -1.07053   0.15166 
 1                     1.98795   1.54706   0.0538 
 
                          Input orientation:                          
 ---------------------------------------------------------------------
 Center     Atomic      Atomic             Coordinates (Angstroms)
 Number     Number       Type             X           Y           Z
 ---------------------------------------------------------------------
      1          6           0       -0.257447    1.308348   -0.076220
      2          6           0        1.101852    0.919127   -0.031859
      3          6           0        1.400342   -0.477878    0.048766
      4          6           0        0.251679   -1.248242   -0.021298
      5          6           0       -1.138702   -0.877113   -0.003366
      6          6           0       -1.360207    0.407458    0.095081
      7          1           0       -0.490305    2.355338    0.181984
      8          1           0       -2.496074    0.787410   -0.146214
      9          1           0       -1.893094   -1.625884   -0.116619
     10          1           0        0.433945   -2.363831   -0.182019
     11          1           0        2.431520   -1.070528    0.151662
     12          1           0        1.987952    1.547058    0.053800
 ---------------------------------------------------------------------
                    Distance matrix (angstroms):
                    1          2          3          4          5
     1  C    0.000000
     2  C    1.414621   0.000000
     3  C    2.440182   1.430810   0.000000
     4  C    2.607370   2.328174   1.384846   0.000000
     5  C    2.357574   2.871823   2.570768   1.439173   0.000000
     6  C    1.434233   2.517866   2.899413   2.313669   1.307241
     7  H    1.103214   2.154854   3.408725   3.684787   3.302046
     8  H    2.299506   3.602152   4.101344   3.421934   2.152557
     9  H    3.359567   3.931153   3.491703   2.179851   1.068921
    10  H    3.738196   3.353574   2.131666   1.141749   2.171513
    11  H    3.597433   2.400088   1.193797   2.193902   3.578817
    12  H    2.261793   1.089408   2.108477   3.291503   3.956746
                    6          7          8          9         10
     6  C    0.000000
     7  H    2.135068   0.000000
     8  H    1.221794   2.566948   0.000000
     9  H    2.112645   4.231679   2.487659   0.000000
    10  H    3.312976   4.822581   4.303094   2.442121   0.000000
    11  H    4.069993   4.502726   5.274642   4.368374   2.402973
    12  H    3.537027   2.609887   4.552314   5.015888   4.214926
                   11         12
    11  H    0.000000
    12  H    2.656705   0.000000
 Stoichiometry    C6H6
 Framework group  C1[X(C6H6)]
 Deg. of freedom    30
 Full point group                 C1      NOp   1
 Largest Abelian subgroup         C1      NOp   1
 Largest concise Abelian subgroup C1      NOp   1
                         Standard orientation:                         
 ---------------------------------------------------------------------
 Center     Atomic      Atomic             Coordinates (Angstroms)
 Number     Number       Type             X           Y           Z
 ---------------------------------------------------------------------
      1          6           0       -0.224288    1.318069   -0.083846
      2          6           0        1.125196    0.895390   -0.046563
      3          6           0        1.389419   -0.508036    0.041760
      4          6           0        0.221455   -1.249983   -0.014563
      5          6           0       -1.159089   -0.844185    0.010796
      6          6           0       -1.347826    0.446156    0.101773
      7          1           0       -0.429104    2.372291    0.168638
      8          1           0       -2.475641    0.852644   -0.133983
      9          1           0       -1.932697   -1.574674   -0.091715
     10          1           0        0.374712   -2.370847   -0.168720
     11          1           0        2.406265   -1.125492    0.141382
     12          1           0        2.027257    1.501606    0.028256
 ---------------------------------------------------------------------
 Rotational constants (GHZ):           6.1854134           5.1516126           2.8217451
 Standard basis: 6-31G(d,p) (6D, 7F)
 There are   120 symmetry adapted cartesian basis functions of A   symmetry.
 There are   120 symmetry adapted basis functions of A   symmetry.
   120 basis functions,   210 primitive gaussians,   120 cartesian basis functions
    21 alpha electrons       21 beta electrons
       nuclear repulsion energy       201.9009727981 Hartrees.
 NAtoms=   12 NActive=   12 NUniq=   12 SFac= 1.00D+00 NAtFMM=   60 NAOKFM=F Big=F
 Integral buffers will be    131072 words long.
 Regular integral format.
 Two-electron integral symmetry is turned on.
 One-electron integrals computed using PRISM.
 NBasis=   120 RedAO= T EigKep=  8.88D-04  NBF=   120
 NBsUse=   120 1.00D-06 EigRej= -1.00D+00 NBFU=   120
 ExpMin= 1.61D-01 ExpMax= 3.05D+03 ExpMxC= 4.57D+02 IAcc=3 IRadAn=         5 AccDes= 0.00D+00
 Harris functional with IExCor=  402 and IRadAn=       5 diagonalized for initial guess.
 HarFok:  IExCor=  402 AccDes= 0.00D+00 IRadAn=         5 IDoV= 1 UseB2=F ITyADJ=14
 ICtDFT=  3500011 ScaDFX=  1.000000  1.000000  1.000000  1.000000
 FoFCou: FMM=F IPFlag=           0 FMFlag=      100000 FMFlg1=           0
         NFxFlg=           0 DoJE=T BraDBF=F KetDBF=T FulRan=T
         wScrn=  0.000000 ICntrl=       500 IOpCl=  0 I1Cent=   200000004 NGrid=           0
         NMat0=    1 NMatS0=      1 NMatT0=    0 NMatD0=    1 NMtDS0=    0 NMtDT0=    0
 Petite list used in FoFCou.
 Keep R1 ints in memory in canonical form, NReq=30147728.
 Requested convergence on RMS density matrix=1.00D-08 within 128 cycles.
 Requested convergence on MAX density matrix=1.00D-06.
 Requested convergence on             energy=1.00D-06.
 No special actions if energy rises.
 Integral accuracy reduced to 1.0D-05 until final iterations.
 Initial convergence to 1.0D-05 achieved.  Increase integral accuracy.
 SCF Done:  E(RB3LYP) =  -232.201038663     A.U. after   13 cycles
            NFock= 13  Conv=0.82D-08     -V/T= 2.0113
 DoSCS=F DFT=T ScalE2(SS,OS)=  1.000000  1.000000
 ExpMin= 1.61D-01 ExpMax= 3.05D+03 ExpMxC= 4.57D+02 IAcc=3 IRadAn=         5 AccDes= 0.00D+00
 HarFok:  IExCor=  205 AccDes= 0.00D+00 IRadAn=         5 IDoV=-2 UseB2=F ITyADJ=14
 ICtDFT= 12500011 ScaDFX=  1.000000  1.000000  1.000000  1.000000
 Range of M.O.s used for correlation:     7   120
 NBasis=   120 NAE=    21 NBE=    21 NFC=     6 NFV=     0
 NROrb=    114 NOA=    15 NOB=    15 NVA=    99 NVB=    99
 Keep R1, R2, and R3 ints in memory in canonical form, NReq=84032236.
 Orbital symmetries:
       Occupied  (A) (A) (A) (A) (A) (A) (A) (A) (A) (A) (A) (A)
                 (A) (A) (A) (A) (A) (A) (A) (A) (A)
       Virtual   (A) (A) (A) (A) (A) (A) (A) (A) (A) (A) (A) (A)
                 (A) (A) (A) (A) (A) (A) (A) (A) (A) (A) (A) (A)
                 (A) (A) (A) (A) (A) (A) (A) (A) (A) (A) (A) (A)
                 (A) (A) (A) (A) (A) (A) (A) (A) (A) (A) (A) (A)
                 (A) (A) (A) (A) (A) (A) (A) (A) (A) (A) (A) (A)
                 (A) (A) (A) (A) (A) (A) (A) (A) (A) (A) (A) (A)
                 (A) (A) (A) (A) (A) (A) (A) (A) (A) (A) (A) (A)
                 (A) (A) (A) (A) (A) (A) (A) (A) (A) (A) (A) (A)
                 (A) (A) (A)
     4 initial guesses have been made.
 Convergence on wavefunction:    0.001000000000000
 Iteration     1 Dimension     4 NMult     0 NNew      4
 CISAX will form     4 AO SS matrices at one time.
 New state      1 was old state      2
 Iteration     2 Dimension     6 NMult     4 NNew      2
 Iteration     3 Dimension     8 NMult     6 NNew      2
 Iteration     4 Dimension    10 NMult     8 NNew      2
 Iteration     5 Dimension    12 NMult    10 NNew      2
 ***********************************************************************
 Excited states from <AA,BB:AA,BB> singles matrix:
 ***********************************************************************
 
 Ground to excited state transition densities written to RWF  633
 Ground to excited state transition electric dipole moments (Au):
       state          X           Y           Z        Dip. S.      Osc.
         1         0.2075      0.0393     -0.0012      0.0446      0.0058
 Ground to excited state transition velocity dipole moments (Au):
       state          X           Y           Z        Dip. S.      Osc.
         1        -0.0433     -0.0085     -0.0002      0.0019      0.0066
 Ground to excited state transition magnetic dipole moments (Au):
       state          X           Y           Z
         1        -0.0164      0.0315      0.0570
 Ground to excited state transition velocity quadrupole moments (Au):
       state          XX          YY          ZZ          XY          XZ          YZ
         1        -0.0222     -0.0145      0.0128      0.0121     -0.0023      0.0100
 <0|del|b> * <b|rxdel|0> + <0|del|b> * <b|delr+rdel|0>
 Rotatory Strengths (R) in cgs (10**-40 erg-esu-cm/Gauss)
       state          XX          YY          ZZ    R(velocity)    E-M Angle
         1        -0.5406      0.4837      1.6133      0.5188       81.63
 1/2[<0|r|b>*<b|rxdel|0> + (<0|rxdel|b>*<b|r|0>)*]
 Rotatory Strengths (R) in cgs (10**-40 erg-esu-cm/Gauss)
       state          XX          YY          ZZ     R(length)
         1         2.4033     -0.8765      0.0502      0.5257
  1/2[<0|del|b>*<b|r|0> + (<0|r|b>*<b|del|0>)*] (Au)
       state          X           Y           Z        Dip. S.   Osc.(frdel)
         1        -0.0090     -0.0003      0.0000      0.0093      0.0062

 Excitation energies and oscillator strengths:
 
 Excited State   1:      Singlet-A      5.3285 eV  232.68 nm  f=0.0058  <S**2>=0.000
      20 -> 22        -0.42509
      21 -> 23         0.56317
 This state for optimization and/or second-order correction.
 Total Energy, E(TD-HF/TD-DFT) =  -232.005218767    
 Copying the excited state density for this state as the 1-particle RhoCI density.
 SavETr:  write IOETrn=   770 NScale= 10 NData=  16 NLR=1 NState=    1 LETran=      28.

 **********************************************************************

            Population analysis using the SCF Density.

 **********************************************************************

 Orbital symmetries:
       Occupied  (A) (A) (A) (A) (A) (A) (A) (A) (A) (A) (A) (A)
                 (A) (A) (A) (A) (A) (A) (A) (A) (A)
       Virtual   (A) (A) (A) (A) (A) (A) (A) (A) (A) (A) (A) (A)
                 (A) (A) (A) (A) (A) (A) (A) (A) (A) (A) (A) (A)
                 (A) (A) (A) (A) (A) (A) (A) (A) (A) (A) (A) (A)
                 (A) (A) (A) (A) (A) (A) (A) (A) (A) (A) (A) (A)
                 (A) (A) (A) (A) (A) (A) (A) (A) (A) (A) (A) (A)
                 (A) (A) (A) (A) (A) (A) (A) (A) (A) (A) (A) (A)
                 (A) (A) (A) (A) (A) (A) (A) (A) (A) (A) (A) (A)
                 (A) (A) (A) (A) (A) (A) (A) (A) (A) (A) (A) (A)
                 (A) (A) (A)
 The electronic state is 1-A.
 Alpha  occ. eigenvalues --  -10.20384 -10.20132 -10.19712 -10.19523 -10.19275
 Alpha  occ. eigenvalues --  -10.18592  -0.85072  -0.75409  -0.72531  -0.60019
 Alpha  occ. eigenvalues --   -0.58438  -0.51052  -0.45440  -0.43694  -0.42388
 Alpha  occ. eigenvalues --   -0.39296  -0.35802  -0.33851  -0.32407  -0.25996
 Alpha  occ. eigenvalues --   -0.23690
 Alpha virt. eigenvalues --   -0.00869  -0.00212   0.06971   0.10837   0.14045
 Alpha virt. eigenvalues --    0.14843   0.16794   0.16888   0.18667   0.26987
 Alpha virt. eigenvalues --    0.28440   0.32157   0.32991   0.45993   0.48385
 Alpha virt. eigenvalues --    0.52519   0.54212   0.55508   0.58476   0.59085
 Alpha virt. eigenvalues --    0.60010   0.61009   0.61591   0.63635   0.65050
 Alpha virt. eigenvalues --    0.66278   0.67613   0.74152   0.76269   0.77614
 Alpha virt. eigenvalues --    0.80621   0.81857   0.84777   0.90110   0.91330
 Alpha virt. eigenvalues --    0.93880   0.95285   0.98429   1.05982   1.10140
 Alpha virt. eigenvalues --    1.11053   1.12574   1.23296   1.29517   1.35086
 Alpha virt. eigenvalues --    1.39556   1.40491   1.41993   1.44945   1.51397
 Alpha virt. eigenvalues --    1.70516   1.71188   1.75910   1.80599   1.82496
 Alpha virt. eigenvalues --    1.90268   1.95109   1.97185   1.98968   2.02041
 Alpha virt. eigenvalues --    2.04643   2.08496   2.09720   2.20906   2.23575
 Alpha virt. eigenvalues --    2.26469   2.31017   2.34081   2.36999   2.37624
 Alpha virt. eigenvalues --    2.38708   2.42612   2.44427   2.45098   2.47464
 Alpha virt. eigenvalues --    2.48989   2.51589   2.57449   2.60687   2.63890
 Alpha virt. eigenvalues --    2.69209   2.75083   2.78754   2.91126   2.97997
 Alpha virt. eigenvalues --    3.05286   3.14702   3.15559   3.24254   3.30149
 Alpha virt. eigenvalues --    3.36494   3.52223   3.79599   4.12482   4.15521
 Alpha virt. eigenvalues --    4.19526   4.43089   4.45499   4.76683
          Condensed to atoms (all electrons):
               1          2          3          4          5          6
     1  C    4.880802   0.546751  -0.040862  -0.049101  -0.049363   0.505366
     2  C    0.546751   4.858175   0.496954  -0.042995  -0.038960  -0.022284
     3  C   -0.040862   0.496954   4.854760   0.565614  -0.034373  -0.035932
     4  C   -0.049101  -0.042995   0.565614   4.837856   0.527628  -0.038832
     5  C   -0.049363  -0.038960  -0.034373   0.527628   4.778740   0.561390
     6  C    0.505366  -0.022284  -0.035932  -0.038832   0.561390   4.854721
     7  H    0.367542  -0.041402   0.004445   0.000736   0.005563  -0.043169
     8  H   -0.033226   0.003064   0.000430   0.005451  -0.039174   0.348704
     9  H    0.005756   0.000096   0.004452  -0.039171   0.375756  -0.048361
    10  H    0.000814   0.006865  -0.047293   0.352814  -0.044554   0.007462
    11  H    0.003024  -0.031806   0.357718  -0.034399   0.003672   0.000003
    12  H   -0.034237   0.366047  -0.047546   0.005308   0.000752   0.003216
               7          8          9         10         11         12
     1  C    0.367542  -0.033226   0.005756   0.000814   0.003024  -0.034237
     2  C   -0.041402   0.003064   0.000096   0.006865  -0.031806   0.366047
     3  C    0.004445   0.000430   0.004452  -0.047293   0.357718  -0.047546
     4  C    0.000736   0.005451  -0.039171   0.352814  -0.034399   0.005308
     5  C    0.005563  -0.039174   0.375756  -0.044554   0.003672   0.000752
     6  C   -0.043169   0.348704  -0.048361   0.007462   0.000003   0.003216
     7  H    0.627828  -0.004650  -0.000241   0.000001  -0.000095  -0.005145
     8  H   -0.004650   0.653581  -0.006958  -0.000237   0.000009  -0.000066
     9  H   -0.000241  -0.006958   0.622373  -0.007675  -0.000097   0.000017
    10  H    0.000001  -0.000237  -0.007675   0.677598  -0.008615  -0.000307
    11  H   -0.000095   0.000009  -0.000097  -0.008615   0.614379  -0.002921
    12  H   -0.005145  -0.000066   0.000017  -0.000307  -0.002921   0.620442
 Mulliken charges:
               1
     1  C   -0.103265
     2  C   -0.100505
     3  C   -0.078368
     4  C   -0.090908
     5  C   -0.047078
     6  C   -0.092285
     7  H    0.088587
     8  H    0.073073
     9  H    0.094054
    10  H    0.063127
    11  H    0.099127
    12  H    0.094441
 Sum of Mulliken charges =  -0.00000
 Mulliken charges with hydrogens summed into heavy atoms:
               1
     1  C   -0.014679
     2  C   -0.006063
     3  C    0.020759
     4  C   -0.027781
     5  C    0.046976
     6  C   -0.019212
 Electronic spatial extent (au):  <R**2>=            464.3492
 Charge=             -0.0000 electrons
 Dipole moment (field-independent basis, Debye):
    X=              0.1240    Y=             -0.2539    Z=              0.0017  Tot=              0.2826
 Quadrupole moment (field-independent basis, Debye-Ang):
   XX=            -30.9851   YY=            -32.9383   ZZ=            -38.7112
   XY=              0.2260   XZ=              0.6602   YZ=              0.5854
 Traceless Quadrupole moment (field-independent basis, Debye-Ang):
   XX=              3.2265   YY=              1.2732   ZZ=             -4.4997
   XY=              0.2260   XZ=              0.6602   YZ=              0.5854
 Octapole moment (field-independent basis, Debye-Ang**2):
  XXX=              1.5547  YYY=             -0.6209  ZZZ=              0.0467  XYY=              0.1187
  XXY=             -1.7836  XXZ=             -0.3479  XZZ=             -0.2199  YZZ=             -0.1854
  YYZ=              0.3598  XYZ=             -0.2347
 Hexadecapole moment (field-independent basis, Debye-Ang**3):
 XXXX=           -294.3568 YYYY=           -266.5220 ZZZZ=            -41.4705 XXXY=              0.6781
 XXXZ=              5.2026 YYYX=              1.7144 YYYZ=              4.5598 ZZZX=              0.5025
 ZZZY=              0.6735 XXYY=            -90.2309 XXZZ=            -66.0226 YYZZ=            -57.8508
 XXYZ=             -0.5857 YYXZ=              0.6781 ZZXY=              0.6261
 N-N= 2.019009727981D+02 E-N=-9.407892625181D+02  KE= 2.296155657671D+02
 1\1\GINC-DESKTOP-PRN5QE3\SP\RB3LYP TD-FC\6-31G(d,p)\C6H6\SHOHEI\10-Nov
 -2023\0\\# TD=(NStates=1) B3LYP/6-31G(d,p)\\ABSSPCT\\0,1\C,0,-0.257446
 8487,1.3083476305,-0.0762198201\C,0,1.1018518097,0.919126689,-0.031858
 7031\C,0,1.400341728,-0.4778779149,0.0487660864\C,0,0.2516787068,-1.24
 82424169,-0.0212978577\C,0,-1.1387021097,-0.8771126857,-0.0033659594\C
 ,0,-1.3602069575,0.40745843,0.0950808595\H,0,-0.4903052576,2.355337699
 ,0.1819838925\H,0,-2.4960740639,0.787409925,-0.1462139984\H,0,-1.89309
 43111,-1.6258841435,-0.1166185807\H,0,0.4339454807,-2.3638307108,-0.18
 20189046\H,0,2.4315203891,-1.070527684,0.1516622318\H,0,1.9879524651,1
 .5470578784,0.0537996483\\Version=EM64L-G16RevB.01\State=1-A\HF=-232.2
 010387\RMSD=8.163e-09\PG=C01 [X(C6H6)]\\@


 ONLY THE DAY DAWNS TO WHICH YOU ARE AWAKE.

                                 -- THOREAU
 Job cpu time:       0 days  0 hours  3 minutes 13.9 seconds.
 Elapsed time:       0 days  0 hours  0 minutes 49.2 seconds.
 File lengths (MBytes):  RWF=    116 Int=      0 D2E=      0 Chk=      3 Scr=      1
 Normal termination of Gaussian 16 at Fri Nov 10 16:34:42 2023.
