 Entering Gaussian System, Link 0=g16
 Input=Geometry-25-.com
 Output=Geometry-25-.log
 Initial command:
 /home/shohei/gaussian/g16/l1.exe "/home/shohei/gaussian/scratch/Gau-23555.inp" -scrdir="/home/shohei/gaussian/scratch/"
 Entering Link 1 = /home/shohei/gaussian/g16/l1.exe PID=     23557.
  
 Copyright (c) 1988-2017, Gaussian, Inc.  All Rights Reserved.
  
 This is part of the Gaussian(R) 16 program.  It is based on
 the Gaussian(R) 09 system (copyright 2009, Gaussian, Inc.),
 the Gaussian(R) 03 system (copyright 2003, Gaussian, Inc.),
 the Gaussian(R) 98 system (copyright 1998, Gaussian, Inc.),
 the Gaussian(R) 94 system (copyright 1995, Gaussian, Inc.),
 the Gaussian 92(TM) system (copyright 1992, Gaussian, Inc.),
 the Gaussian 90(TM) system (copyright 1990, Gaussian, Inc.),
 the Gaussian 88(TM) system (copyright 1988, Gaussian, Inc.),
 the Gaussian 86(TM) system (copyright 1986, Carnegie Mellon
 University), and the Gaussian 82(TM) system (copyright 1983,
 Carnegie Mellon University). Gaussian is a federally registered
 trademark of Gaussian, Inc.
  
 This software contains proprietary and confidential information,
 including trade secrets, belonging to Gaussian, Inc.
  
 This software is provided under written license and may be
 used, copied, transmitted, or stored only in accord with that
 written license.
  
 The following legend is applicable only to US Government
 contracts under FAR:
  
                    RESTRICTED RIGHTS LEGEND
  
 Use, reproduction and disclosure by the US Government is
 subject to restrictions as set forth in subparagraphs (a)
 and (c) of the Commercial Computer Software - Restricted
 Rights clause in FAR 52.227-19.
  
 Gaussian, Inc.
 340 Quinnipiac St., Bldg. 40, Wallingford CT 06492
  
  
 ---------------------------------------------------------------
 Warning -- This program may not be used in any manner that
 competes with the business of Gaussian, Inc. or will provide
 assistance to any competitor of Gaussian, Inc.  The licensee
 of this program is prohibited from giving any competitor of
 Gaussian, Inc. access to this program.  By using this program,
 the user acknowledges that Gaussian, Inc. is engaged in the
 business of creating and licensing software in the field of
 computational chemistry and represents and warrants to the
 licensee that it is not a competitor of Gaussian, Inc. and that
 it will not use this program in any manner prohibited above.
 ---------------------------------------------------------------
  

 Cite this work as:
 Gaussian 16, Revision B.01,
 M. J. Frisch, G. W. Trucks, H. B. Schlegel, G. E. Scuseria, 
 M. A. Robb, J. R. Cheeseman, G. Scalmani, V. Barone, 
 G. A. Petersson, H. Nakatsuji, X. Li, M. Caricato, A. V. Marenich, 
 J. Bloino, B. G. Janesko, R. Gomperts, B. Mennucci, H. P. Hratchian, 
 J. V. Ortiz, A. F. Izmaylov, J. L. Sonnenberg, D. Williams-Young, 
 F. Ding, F. Lipparini, F. Egidi, J. Goings, B. Peng, A. Petrone, 
 T. Henderson, D. Ranasinghe, V. G. Zakrzewski, J. Gao, N. Rega, 
 G. Zheng, W. Liang, M. Hada, M. Ehara, K. Toyota, R. Fukuda, 
 J. Hasegawa, M. Ishida, T. Nakajima, Y. Honda, O. Kitao, H. Nakai, 
 T. Vreven, K. Throssell, J. A. Montgomery, Jr., J. E. Peralta, 
 F. Ogliaro, M. J. Bearpark, J. J. Heyd, E. N. Brothers, K. N. Kudin, 
 V. N. Staroverov, T. A. Keith, R. Kobayashi, J. Normand, 
 K. Raghavachari, A. P. Rendell, J. C. Burant, S. S. Iyengar, 
 J. Tomasi, M. Cossi, J. M. Millam, M. Klene, C. Adamo, R. Cammi, 
 J. W. Ochterski, R. L. Martin, K. Morokuma, O. Farkas, 
 J. B. Foresman, and D. J. Fox, Gaussian, Inc., Wallingford CT, 2016.
 
 ******************************************
 Gaussian 16:  EM64L-G16RevB.01 20-Dec-2017
                10-Nov-2023 
 ******************************************
 %nproc=4
 Will use up to    4 processors via shared memory.
 %Mem=2Gb
 ---------------------------------
 # TD=(NStates=1) B3LYP/6-31G(d,p)
 ---------------------------------
 1/38=1,172=1/1;
 2/12=2,17=6,18=5,40=1/2;
 3/5=1,6=6,7=101,11=9,25=1,30=1,74=-5/1,2,3,8;
 4//1;
 5/5=2,38=5/2;
 8/6=1,10=2,108=1/1;
 9/41=1,42=1,70=2/14;
 6/7=2,8=2,9=2,10=2/1;
 99/5=1,9=1/99;
 -------
 ABSSPCT
 -------
 Symbolic Z-matrix:
 Charge =  0 Multiplicity = 1
 6                    -0.24442   1.42918  -0.01043 
 6                     1.13896   0.95429  -0.04216 
 6                     1.32553  -0.42952   0.0647 
 6                     0.25394  -1.41452  -0.01693 
 6                    -1.14161  -0.94881  -0.01819 
 6                    -1.3251    0.43605   0.05803 
 1                    -0.40836   2.46856  -0.00464 
 1                    -2.48187   0.73807  -0.14364 
 1                    -1.88678  -1.74815  -0.05784 
 1                     0.41925  -2.47827  -0.09682 
 1                     2.27501  -0.89013  -0.05461 
 1                     1.95922   1.59288  -0.0383 
 
                          Input orientation:                          
 ---------------------------------------------------------------------
 Center     Atomic      Atomic             Coordinates (Angstroms)
 Number     Number       Type             X           Y           Z
 ---------------------------------------------------------------------
      1          6           0       -0.244416    1.429181   -0.010431
      2          6           0        1.138965    0.954295   -0.042161
      3          6           0        1.325526   -0.429522    0.064701
      4          6           0        0.253938   -1.414515   -0.016932
      5          6           0       -1.141613   -0.948811   -0.018191
      6          6           0       -1.325099    0.436048    0.058033
      7          1           0       -0.408364    2.468563   -0.004638
      8          1           0       -2.481867    0.738066   -0.143642
      9          1           0       -1.886778   -1.748145   -0.057835
     10          1           0        0.419251   -2.478273   -0.096822
     11          1           0        2.275007   -0.890135   -0.054608
     12          1           0        1.959221    1.592882   -0.038302
 ---------------------------------------------------------------------
                    Distance matrix (angstroms):
                    1          2          3          4          5
     1  C    0.000000
     2  C    1.462964   0.000000
     3  C    2.434160   1.400419   0.000000
     4  C    2.887041   2.528867   1.457798   0.000000
     5  C    2.541627   2.970424   2.522559   1.471205   0.000000
     6  C    1.469312   2.519966   2.788381   2.433837   1.399040
     7  H    1.052249   2.165327   3.377880   3.939173   3.495180
     8  H    2.345543   3.628701   3.987845   3.483431   2.158142
     9  H    3.577010   4.056913   3.474576   2.166944   1.093516
    10  H    3.964355   3.507634   2.246064   1.079486   2.186717
    11  H    3.424714   2.166257   1.062033   2.088328   3.417318
    12  H    2.209885   1.039533   2.121861   3.457294   4.009461
                    6          7          8          9         10
     6  C    0.000000
     7  H    2.230571   0.000000
     8  H    1.212435   2.704321   0.000000
     9  H    2.258232   4.468687   2.557879   0.000000
    10  H    3.400000   5.016435   4.331687   2.419168   0.000000
    11  H    3.838257   4.299282   5.028600   4.249312   2.442908
    12  H    3.483433   2.524562   4.523834   5.094561   4.353072
                   11         12
    11  H    0.000000
    12  H    2.503070   0.000000
 Stoichiometry    C6H6
 Framework group  C1[X(C6H6)]
 Deg. of freedom    30
 Full point group                 C1      NOp   1
 Largest Abelian subgroup         C1      NOp   1
 Largest concise Abelian subgroup C1      NOp   1
                         Standard orientation:                         
 ---------------------------------------------------------------------
 Center     Atomic      Atomic             Coordinates (Angstroms)
 Number     Number       Type             X           Y           Z
 ---------------------------------------------------------------------
      1          6           0       -0.846291    1.181452    0.008304
      2          6           0       -1.483528   -0.135014    0.041627
      3          6           0       -0.632943   -1.242154   -0.067538
      4          6           0        0.821242   -1.175312    0.010281
      5          6           0        1.473656    0.143324    0.009907
      6          6           0        0.619684    1.249027   -0.064006
      7          1           0       -1.468611    2.029938    0.004198
      8          1           0        1.220622    2.282859    0.136155
      9          1           0        2.566022    0.109236    0.046681
     10          1           0        1.460098   -2.041940    0.088441
     11          1           0       -0.974457   -2.240576    0.052607
     12          1           0       -2.514590   -0.267457    0.040467
 ---------------------------------------------------------------------
 Rotational constants (GHZ):           5.6192602           5.1296288           2.6861733
 Standard basis: 6-31G(d,p) (6D, 7F)
 There are   120 symmetry adapted cartesian basis functions of A   symmetry.
 There are   120 symmetry adapted basis functions of A   symmetry.
   120 basis functions,   210 primitive gaussians,   120 cartesian basis functions
    21 alpha electrons       21 beta electrons
       nuclear repulsion energy       197.8239442828 Hartrees.
 NAtoms=   12 NActive=   12 NUniq=   12 SFac= 1.00D+00 NAtFMM=   60 NAOKFM=F Big=F
 Integral buffers will be    131072 words long.
 Regular integral format.
 Two-electron integral symmetry is turned on.
 One-electron integrals computed using PRISM.
 NBasis=   120 RedAO= T EigKep=  8.78D-04  NBF=   120
 NBsUse=   120 1.00D-06 EigRej= -1.00D+00 NBFU=   120
 ExpMin= 1.61D-01 ExpMax= 3.05D+03 ExpMxC= 4.57D+02 IAcc=3 IRadAn=         5 AccDes= 0.00D+00
 Harris functional with IExCor=  402 and IRadAn=       5 diagonalized for initial guess.
 HarFok:  IExCor=  402 AccDes= 0.00D+00 IRadAn=         5 IDoV= 1 UseB2=F ITyADJ=14
 ICtDFT=  3500011 ScaDFX=  1.000000  1.000000  1.000000  1.000000
 FoFCou: FMM=F IPFlag=           0 FMFlag=      100000 FMFlg1=           0
         NFxFlg=           0 DoJE=T BraDBF=F KetDBF=T FulRan=T
         wScrn=  0.000000 ICntrl=       500 IOpCl=  0 I1Cent=   200000004 NGrid=           0
         NMat0=    1 NMatS0=      1 NMatT0=    0 NMatD0=    1 NMtDS0=    0 NMtDT0=    0
 Petite list used in FoFCou.
 Keep R1 ints in memory in canonical form, NReq=30147728.
 Requested convergence on RMS density matrix=1.00D-08 within 128 cycles.
 Requested convergence on MAX density matrix=1.00D-06.
 Requested convergence on             energy=1.00D-06.
 No special actions if energy rises.
 Integral accuracy reduced to 1.0D-05 until final iterations.
 Initial convergence to 1.0D-05 achieved.  Increase integral accuracy.
 SCF Done:  E(RB3LYP) =  -232.219465138     A.U. after   13 cycles
            NFock= 13  Conv=0.37D-08     -V/T= 2.0126
 DoSCS=F DFT=T ScalE2(SS,OS)=  1.000000  1.000000
 ExpMin= 1.61D-01 ExpMax= 3.05D+03 ExpMxC= 4.57D+02 IAcc=3 IRadAn=         5 AccDes= 0.00D+00
 HarFok:  IExCor=  205 AccDes= 0.00D+00 IRadAn=         5 IDoV=-2 UseB2=F ITyADJ=14
 ICtDFT= 12500011 ScaDFX=  1.000000  1.000000  1.000000  1.000000
 Range of M.O.s used for correlation:     7   120
 NBasis=   120 NAE=    21 NBE=    21 NFC=     6 NFV=     0
 NROrb=    114 NOA=    15 NOB=    15 NVA=    99 NVB=    99
 Keep R1, R2, and R3 ints in memory in canonical form, NReq=84032236.
 Orbital symmetries:
       Occupied  (A) (A) (A) (A) (A) (A) (A) (A) (A) (A) (A) (A)
                 (A) (A) (A) (A) (A) (A) (A) (A) (A)
       Virtual   (A) (A) (A) (A) (A) (A) (A) (A) (A) (A) (A) (A)
                 (A) (A) (A) (A) (A) (A) (A) (A) (A) (A) (A) (A)
                 (A) (A) (A) (A) (A) (A) (A) (A) (A) (A) (A) (A)
                 (A) (A) (A) (A) (A) (A) (A) (A) (A) (A) (A) (A)
                 (A) (A) (A) (A) (A) (A) (A) (A) (A) (A) (A) (A)
                 (A) (A) (A) (A) (A) (A) (A) (A) (A) (A) (A) (A)
                 (A) (A) (A) (A) (A) (A) (A) (A) (A) (A) (A) (A)
                 (A) (A) (A) (A) (A) (A) (A) (A) (A) (A) (A) (A)
                 (A) (A) (A)
     4 initial guesses have been made.
 Convergence on wavefunction:    0.001000000000000
 Iteration     1 Dimension     4 NMult     0 NNew      4
 CISAX will form     4 AO SS matrices at one time.
 New state      1 was old state      2
 Iteration     2 Dimension     6 NMult     4 NNew      2
 Iteration     3 Dimension     8 NMult     6 NNew      2
 Iteration     4 Dimension    10 NMult     8 NNew      2
 Iteration     5 Dimension    12 NMult    10 NNew      2
 Iteration     6 Dimension    14 NMult    12 NNew      2
 ***********************************************************************
 Excited states from <AA,BB:AA,BB> singles matrix:
 ***********************************************************************
 
 Ground to excited state transition densities written to RWF  633
 Ground to excited state transition electric dipole moments (Au):
       state          X           Y           Z        Dip. S.      Osc.
         1         0.0424     -0.0941     -0.0037      0.0107      0.0013
 Ground to excited state transition velocity dipole moments (Au):
       state          X           Y           Z        Dip. S.      Osc.
         1        -0.0076      0.0192      0.0008      0.0004      0.0015
 Ground to excited state transition magnetic dipole moments (Au):
       state          X           Y           Z
         1        -0.0092      0.0058     -0.0204
 Ground to excited state transition velocity quadrupole moments (Au):
       state          XX          YY          ZZ          XY          XZ          YZ
         1         0.0021     -0.0036      0.0011     -0.0033      0.0029     -0.0030
 <0|del|b> * <b|rxdel|0> + <0|del|b> * <b|delr+rdel|0>
 Rotatory Strengths (R) in cgs (10**-40 erg-esu-cm/Gauss)
       state          XX          YY          ZZ    R(velocity)    E-M Angle
         1         0.0694      0.1497      0.4077      0.2089       69.80
 1/2[<0|r|b>*<b|rxdel|0> + (<0|rxdel|b>*<b|r|0>)*]
 Rotatory Strengths (R) in cgs (10**-40 erg-esu-cm/Gauss)
       state          XX          YY          ZZ     R(length)
         1         0.2762      0.3856     -0.0530      0.2029
  1/2[<0|del|b>*<b|r|0> + (<0|r|b>*<b|del|0>)*] (Au)
       state          X           Y           Z        Dip. S.   Osc.(frdel)
         1        -0.0003     -0.0018     -0.0000      0.0021      0.0014

 Excitation energies and oscillator strengths:
 
 Excited State   1:      Singlet-A      5.0768 eV  244.22 nm  f=0.0013  <S**2>=0.000
      20 -> 22         0.47416
      20 -> 23        -0.10491
      21 -> 22         0.16575
      21 -> 23         0.48618
 This state for optimization and/or second-order correction.
 Total Energy, E(TD-HF/TD-DFT) =  -232.032897162    
 Copying the excited state density for this state as the 1-particle RhoCI density.
 SavETr:  write IOETrn=   770 NScale= 10 NData=  16 NLR=1 NState=    1 LETran=      28.

 **********************************************************************

            Population analysis using the SCF Density.

 **********************************************************************

 Orbital symmetries:
       Occupied  (A) (A) (A) (A) (A) (A) (A) (A) (A) (A) (A) (A)
                 (A) (A) (A) (A) (A) (A) (A) (A) (A)
       Virtual   (A) (A) (A) (A) (A) (A) (A) (A) (A) (A) (A) (A)
                 (A) (A) (A) (A) (A) (A) (A) (A) (A) (A) (A) (A)
                 (A) (A) (A) (A) (A) (A) (A) (A) (A) (A) (A) (A)
                 (A) (A) (A) (A) (A) (A) (A) (A) (A) (A) (A) (A)
                 (A) (A) (A) (A) (A) (A) (A) (A) (A) (A) (A) (A)
                 (A) (A) (A) (A) (A) (A) (A) (A) (A) (A) (A) (A)
                 (A) (A) (A) (A) (A) (A) (A) (A) (A) (A) (A) (A)
                 (A) (A) (A) (A) (A) (A) (A) (A) (A) (A) (A) (A)
                 (A) (A) (A)
 The electronic state is 1-A.
 Alpha  occ. eigenvalues --  -10.20999 -10.20404 -10.19915 -10.19882 -10.19672
 Alpha  occ. eigenvalues --  -10.19237  -0.82731  -0.73953  -0.72250  -0.60186
 Alpha  occ. eigenvalues --   -0.58870  -0.50734  -0.47104  -0.43655  -0.41431
 Alpha  occ. eigenvalues --   -0.39729  -0.35890  -0.34807  -0.31701  -0.24989
 Alpha  occ. eigenvalues --   -0.23446
 Alpha virt. eigenvalues --   -0.01729  -0.00265   0.08656   0.12833   0.14140
 Alpha virt. eigenvalues --    0.14571   0.16188   0.17843   0.18907   0.26969
 Alpha virt. eigenvalues --    0.27648   0.28750   0.30744   0.48006   0.48419
 Alpha virt. eigenvalues --    0.50667   0.52904   0.53678   0.57076   0.59382
 Alpha virt. eigenvalues --    0.59804   0.60702   0.61112   0.61917   0.63068
 Alpha virt. eigenvalues --    0.66047   0.66475   0.73129   0.77512   0.81483
 Alpha virt. eigenvalues --    0.83660   0.85012   0.86571   0.91347   0.91896
 Alpha virt. eigenvalues --    0.92730   0.93479   1.04605   1.06366   1.06682
 Alpha virt. eigenvalues --    1.10335   1.16237   1.18574   1.27876   1.36444
 Alpha virt. eigenvalues --    1.38037   1.39418   1.40949   1.43693   1.53665
 Alpha virt. eigenvalues --    1.71116   1.72752   1.74924   1.78173   1.88746
 Alpha virt. eigenvalues --    1.89913   1.91245   1.93891   1.94903   1.99089
 Alpha virt. eigenvalues --    1.99719   2.01726   2.02790   2.21476   2.23153
 Alpha virt. eigenvalues --    2.27842   2.29130   2.34144   2.38448   2.42091
 Alpha virt. eigenvalues --    2.42197   2.43679   2.46526   2.48565   2.50359
 Alpha virt. eigenvalues --    2.51343   2.52338   2.55605   2.57552   2.63513
 Alpha virt. eigenvalues --    2.72476   2.73132   2.75805   2.94604   2.96000
 Alpha virt. eigenvalues --    3.07439   3.16815   3.26004   3.29297   3.37301
 Alpha virt. eigenvalues --    3.47673   3.52220   3.83249   4.08108   4.14924
 Alpha virt. eigenvalues --    4.18009   4.41745   4.43720   4.75021
          Condensed to atoms (all electrons):
               1          2          3          4          5          6
     1  C    4.867670   0.509100  -0.028832  -0.036225  -0.031341   0.508309
     2  C    0.509100   4.822521   0.533656  -0.030136  -0.028610  -0.025493
     3  C   -0.028832   0.533656   4.829299   0.525899  -0.030206  -0.042494
     4  C   -0.036225  -0.030136   0.525899   4.877940   0.511974  -0.036079
     5  C   -0.031341  -0.028610  -0.030206   0.511974   4.832594   0.530697
     6  C    0.508309  -0.025493  -0.042494  -0.036079   0.530697   4.873346
     7  H    0.375595  -0.043511   0.004713   0.000430   0.003508  -0.037639
     8  H   -0.032674   0.002925   0.000337   0.004687  -0.044324   0.350506
     9  H    0.003173   0.000250   0.004514  -0.042534   0.369110  -0.036064
    10  H    0.000331   0.003941  -0.037386   0.366422  -0.042354   0.005376
    11  H    0.005110  -0.044861   0.370739  -0.048274   0.005218   0.000342
    12  H   -0.041621   0.378197  -0.044011   0.004518   0.000173   0.004223
               7          8          9         10         11         12
     1  C    0.375595  -0.032674   0.003173   0.000331   0.005110  -0.041621
     2  C   -0.043511   0.002925   0.000250   0.003941  -0.044861   0.378197
     3  C    0.004713   0.000337   0.004514  -0.037386   0.370739  -0.044011
     4  C    0.000430   0.004687  -0.042534   0.366422  -0.048274   0.004518
     5  C    0.003508  -0.044324   0.369110  -0.042354   0.005218   0.000173
     6  C   -0.037639   0.350506  -0.036064   0.005376   0.000342   0.004223
     7  H    0.610292  -0.003719  -0.000086   0.000008  -0.000196  -0.004470
     8  H   -0.003719   0.655034  -0.005629  -0.000206   0.000010  -0.000093
     9  H   -0.000086  -0.005629   0.615306  -0.005026  -0.000208   0.000010
    10  H    0.000008  -0.000206  -0.005026   0.625317  -0.006203  -0.000124
    11  H   -0.000196   0.000010  -0.000208  -0.006203   0.641151  -0.006240
    12  H   -0.004470  -0.000093   0.000010  -0.000124  -0.006240   0.615262
 Mulliken charges:
               1
     1  C   -0.098595
     2  C   -0.077979
     3  C   -0.086228
     4  C   -0.098623
     5  C   -0.076440
     6  C   -0.095030
     7  H    0.095075
     8  H    0.073145
     9  H    0.097183
    10  H    0.089904
    11  H    0.083412
    12  H    0.094175
 Sum of Mulliken charges =  -0.00000
 Mulliken charges with hydrogens summed into heavy atoms:
               1
     1  C   -0.003520
     2  C    0.016196
     3  C   -0.002815
     4  C   -0.008720
     5  C    0.020743
     6  C   -0.021885
 Electronic spatial extent (au):  <R**2>=            479.7032
 Charge=             -0.0000 electrons
 Dipole moment (field-independent basis, Debye):
    X=             -0.0217    Y=             -0.1967    Z=              0.2282  Tot=              0.3020
 Quadrupole moment (field-independent basis, Debye-Ang):
   XX=            -30.4282   YY=            -32.2951   ZZ=            -39.0661
   XY=             -0.6305   XZ=              0.2151   YZ=             -0.0199
 Traceless Quadrupole moment (field-independent basis, Debye-Ang):
   XX=              3.5016   YY=              1.6347   ZZ=             -5.1363
   XY=             -0.6305   XZ=              0.2151   YZ=             -0.0199
 Octapole moment (field-independent basis, Debye-Ang**2):
  XXX=             -0.1850  YYY=             -1.8619  ZZZ=              0.2865  XYY=             -0.2568
  XXY=             -0.4155  XXZ=              0.8617  XZZ=             -0.3059  YZZ=             -0.3568
  YYZ=              1.3007  XYZ=              0.2871
 Hexadecapole moment (field-independent basis, Debye-Ang**3):
 XXXX=           -285.8503 YYYY=           -281.0768 ZZZZ=            -41.5018 XXXY=             -2.9953
 XXXZ=              0.7538 YYYX=             -3.7806 YYYZ=              0.0791 ZZZX=              0.1537
 ZZZY=             -0.0982 XXYY=            -94.4652 XXZZ=            -65.4005 YYZZ=            -62.1137
 XXYZ=             -0.0577 YYXZ=              1.0204 ZZXY=             -0.3308
 N-N= 1.978239442828D+02 E-N=-9.324370936312D+02  KE= 2.293356814026D+02
 1\1\GINC-DESKTOP-PRN5QE3\SP\RB3LYP TD-FC\6-31G(d,p)\C6H6\SHOHEI\10-Nov
 -2023\0\\# TD=(NStates=1) B3LYP/6-31G(d,p)\\ABSSPCT\\0,1\C,0,-0.244415
 6266,1.42918076,-0.0104305582\C,0,1.1389646139,0.9542945621,-0.0421610
 788\C,0,1.3255259455,-0.4295218684,0.0647007371\C,0,0.2539381325,-1.41
 45151452,-0.0169322082\C,0,-1.1416127645,-0.9488112271,-0.0181907366\C
 ,0,-1.3250990931,0.4360479144,0.058033085\H,0,-0.4083639526,2.46856256
 26,-0.0046384762\H,0,-2.4818669401,0.7380664063,-0.1436416931\H,0,-1.8
 867780594,-1.7481454935,-0.057835329\H,0,0.4192506607,-2.478272688,-0.
 0968224414\H,0,2.2750074877,-0.8901347618,-0.0546081385\H,0,1.95922139
 29,1.5928815911,-0.0383024837\\Version=EM64L-G16RevB.01\State=1-A\HF=-
 232.2194651\RMSD=3.735e-09\PG=C01 [X(C6H6)]\\@


 PENOTUS DIED A HUNDRED YEARS OLD WANTING BUT TWO...
 AND HE USED TO SAY BEFORE HE DIED, HAVING SPENT HIS
 WHOLE LIFE IN VAINLY SEARCHING AFTER THE PHILOSOPHER'S
 STONE, THAT IF HE HAD A MORTAL ENEMY HE DID NOT DARE
 TO ENCOUNTER OPENLY, HE WOULD ADVISE HIM ABOVE ALL
 THINGS TO GIVE HIMSELF UP TO THE STUDY AND PRACTICE
 OF ALCHEMY.  --  NICOLAS LEMERY, M.D.
 "A COURSE OF CHYMISTRY", WALTER KETTILBY, LONDON, 1686
 Job cpu time:       0 days  0 hours  4 minutes  2.0 seconds.
 Elapsed time:       0 days  0 hours  1 minutes  0.9 seconds.
 File lengths (MBytes):  RWF=    116 Int=      0 D2E=      0 Chk=      3 Scr=      1
 Normal termination of Gaussian 16 at Fri Nov 10 16:23:10 2023.
