 Entering Gaussian System, Link 0=g16
 Input=Geometry-119-.com
 Output=Geometry-119-.log
 Initial command:
 /home/shohei/gaussian/g16/l1.exe "/home/shohei/gaussian/scratch/Gau-1438.inp" -scrdir="/home/shohei/gaussian/scratch/"
 Entering Link 1 = /home/shohei/gaussian/g16/l1.exe PID=      1440.
  
 Copyright (c) 1988-2017, Gaussian, Inc.  All Rights Reserved.
  
 This is part of the Gaussian(R) 16 program.  It is based on
 the Gaussian(R) 09 system (copyright 2009, Gaussian, Inc.),
 the Gaussian(R) 03 system (copyright 2003, Gaussian, Inc.),
 the Gaussian(R) 98 system (copyright 1998, Gaussian, Inc.),
 the Gaussian(R) 94 system (copyright 1995, Gaussian, Inc.),
 the Gaussian 92(TM) system (copyright 1992, Gaussian, Inc.),
 the Gaussian 90(TM) system (copyright 1990, Gaussian, Inc.),
 the Gaussian 88(TM) system (copyright 1988, Gaussian, Inc.),
 the Gaussian 86(TM) system (copyright 1986, Carnegie Mellon
 University), and the Gaussian 82(TM) system (copyright 1983,
 Carnegie Mellon University). Gaussian is a federally registered
 trademark of Gaussian, Inc.
  
 This software contains proprietary and confidential information,
 including trade secrets, belonging to Gaussian, Inc.
  
 This software is provided under written license and may be
 used, copied, transmitted, or stored only in accord with that
 written license.
  
 The following legend is applicable only to US Government
 contracts under FAR:
  
                    RESTRICTED RIGHTS LEGEND
  
 Use, reproduction and disclosure by the US Government is
 subject to restrictions as set forth in subparagraphs (a)
 and (c) of the Commercial Computer Software - Restricted
 Rights clause in FAR 52.227-19.
  
 Gaussian, Inc.
 340 Quinnipiac St., Bldg. 40, Wallingford CT 06492
  
  
 ---------------------------------------------------------------
 Warning -- This program may not be used in any manner that
 competes with the business of Gaussian, Inc. or will provide
 assistance to any competitor of Gaussian, Inc.  The licensee
 of this program is prohibited from giving any competitor of
 Gaussian, Inc. access to this program.  By using this program,
 the user acknowledges that Gaussian, Inc. is engaged in the
 business of creating and licensing software in the field of
 computational chemistry and represents and warrants to the
 licensee that it is not a competitor of Gaussian, Inc. and that
 it will not use this program in any manner prohibited above.
 ---------------------------------------------------------------
  

 Cite this work as:
 Gaussian 16, Revision B.01,
 M. J. Frisch, G. W. Trucks, H. B. Schlegel, G. E. Scuseria, 
 M. A. Robb, J. R. Cheeseman, G. Scalmani, V. Barone, 
 G. A. Petersson, H. Nakatsuji, X. Li, M. Caricato, A. V. Marenich, 
 J. Bloino, B. G. Janesko, R. Gomperts, B. Mennucci, H. P. Hratchian, 
 J. V. Ortiz, A. F. Izmaylov, J. L. Sonnenberg, D. Williams-Young, 
 F. Ding, F. Lipparini, F. Egidi, J. Goings, B. Peng, A. Petrone, 
 T. Henderson, D. Ranasinghe, V. G. Zakrzewski, J. Gao, N. Rega, 
 G. Zheng, W. Liang, M. Hada, M. Ehara, K. Toyota, R. Fukuda, 
 J. Hasegawa, M. Ishida, T. Nakajima, Y. Honda, O. Kitao, H. Nakai, 
 T. Vreven, K. Throssell, J. A. Montgomery, Jr., J. E. Peralta, 
 F. Ogliaro, M. J. Bearpark, J. J. Heyd, E. N. Brothers, K. N. Kudin, 
 V. N. Staroverov, T. A. Keith, R. Kobayashi, J. Normand, 
 K. Raghavachari, A. P. Rendell, J. C. Burant, S. S. Iyengar, 
 J. Tomasi, M. Cossi, J. M. Millam, M. Klene, C. Adamo, R. Cammi, 
 J. W. Ochterski, R. L. Martin, K. Morokuma, O. Farkas, 
 J. B. Foresman, and D. J. Fox, Gaussian, Inc., Wallingford CT, 2016.
 
 ******************************************
 Gaussian 16:  EM64L-G16RevB.01 20-Dec-2017
                10-Nov-2023 
 ******************************************
 %nproc=4
 Will use up to    4 processors via shared memory.
 %Mem=2Gb
 ---------------------------------
 # TD=(NStates=1) B3LYP/6-31G(d,p)
 ---------------------------------
 1/38=1,172=1/1;
 2/12=2,17=6,18=5,40=1/2;
 3/5=1,6=6,7=101,11=9,25=1,30=1,74=-5/1,2,3,8;
 4//1;
 5/5=2,38=5/2;
 8/6=1,10=2,108=1/1;
 9/41=1,42=1,70=2/14;
 6/7=2,8=2,9=2,10=2/1;
 99/5=1,9=1/99;
 -------
 ABSSPCT
 -------
 Symbolic Z-matrix:
 Charge =  0 Multiplicity = 1
 6                    -0.29884   1.37634   0.05506 
 6                     1.07454   0.88663  -0.00451 
 6                     1.35245  -0.46093  -0.01964 
 6                     0.29551  -1.42275   0.0406 
 6                    -1.05006  -0.87729  -0.03067 
 6                    -1.37637   0.48778  -0.04706 
 1                    -0.39961   2.42348  -0.06074 
 1                    -2.44529   1.0116    0.18452 
 1                    -1.73304  -1.67188   0.04197 
 1                     0.43824  -2.40591  -0.03032 
 1                     2.12643  -0.87485   0.07417 
 1                     2.02096   1.56467  -0.18571 
 
                          Input orientation:                          
 ---------------------------------------------------------------------
 Center     Atomic      Atomic             Coordinates (Angstroms)
 Number     Number       Type             X           Y           Z
 ---------------------------------------------------------------------
      1          6           0       -0.298838    1.376338    0.055059
      2          6           0        1.074542    0.886632   -0.004507
      3          6           0        1.352449   -0.460932   -0.019638
      4          6           0        0.295515   -1.422749    0.040601
      5          6           0       -1.050061   -0.877287   -0.030665
      6          6           0       -1.376368    0.487783   -0.047058
      7          1           0       -0.399612    2.423481   -0.060744
      8          1           0       -2.445288    1.011601    0.184523
      9          1           0       -1.733037   -1.671880    0.041967
     10          1           0        0.438243   -2.405911   -0.030317
     11          1           0        2.126430   -0.874853    0.074166
     12          1           0        2.020965    1.564666   -0.185709
 ---------------------------------------------------------------------
                    Distance matrix (angstroms):
                    1          2          3          4          5
     1  C    0.000000
     2  C    1.459291   0.000000
     3  C    2.471414   1.376006   0.000000
     4  C    2.861530   2.437655   1.430325   0.000000
     5  C    2.377080   2.761527   2.438345   1.453679   0.000000
     6  C    1.400368   2.483516   2.889162   2.540277   1.403624
     7  H    1.058336   2.130304   3.375093   3.909854   3.364381
     8  H    2.181064   3.527116   4.078338   3.668620   2.358148
     9  H    3.368787   3.798768   3.315179   2.043793   1.050290
    10  H    3.854346   3.353563   2.149146   0.995996   2.133481
    11  H    3.309101   2.053166   0.882710   1.911431   3.178222
    12  H    2.339855   1.178253   2.139519   3.457318   3.926624
                    6          7          8          9         10
     6  C    0.000000
     7  H    2.168218   0.000000
     8  H    1.212685   2.497669   0.000000
     9  H    2.190726   4.308196   2.780052   0.000000
    10  H    3.415634   4.901628   4.476639   2.293139   0.000000
    11  H    3.760461   4.156693   4.946867   3.941038   2.281454
    12  H    3.566620   2.571453   4.515569   4.961814   4.277223
                   11         12
    11  H    0.000000
    12  H    2.455588   0.000000
 Stoichiometry    C6H6
 Framework group  C1[X(C6H6)]
 Deg. of freedom    30
 Full point group                 C1      NOp   1
 Largest Abelian subgroup         C1      NOp   1
 Largest concise Abelian subgroup C1      NOp   1
                         Standard orientation:                         
 ---------------------------------------------------------------------
 Center     Atomic      Atomic             Coordinates (Angstroms)
 Number     Number       Type             X           Y           Z
 ---------------------------------------------------------------------
      1          6           0       -1.113105    0.863232    0.057517
      2          6           0        0.254362    1.370071    0.005738
      3          6           0        1.332760    0.515583   -0.011586
      4          6           0        1.139938   -0.900795    0.038619
      5          6           0       -0.241595   -1.346169   -0.040075
      6          6           0       -1.368234   -0.509131   -0.054547
      7          1           0       -1.862382    1.602027   -0.055802
      8          1           0       -2.524765   -0.795468    0.171398
      9          1           0       -0.255163   -2.394319    0.025550
     10          1           0        1.880897   -1.562362   -0.034302
     11          1           0        2.191574    0.694626    0.086187
     12          1           0        0.545083    2.498749   -0.167028
 ---------------------------------------------------------------------
 Rotational constants (GHZ):           5.7658443           5.3414234           2.7782466
 Standard basis: 6-31G(d,p) (6D, 7F)
 There are   120 symmetry adapted cartesian basis functions of A   symmetry.
 There are   120 symmetry adapted basis functions of A   symmetry.
   120 basis functions,   210 primitive gaussians,   120 cartesian basis functions
    21 alpha electrons       21 beta electrons
       nuclear repulsion energy       201.5120947414 Hartrees.
 NAtoms=   12 NActive=   12 NUniq=   12 SFac= 1.00D+00 NAtFMM=   60 NAOKFM=F Big=F
 Integral buffers will be    131072 words long.
 Regular integral format.
 Two-electron integral symmetry is turned on.
 One-electron integrals computed using PRISM.
 NBasis=   120 RedAO= T EigKep=  8.96D-04  NBF=   120
 NBsUse=   120 1.00D-06 EigRej= -1.00D+00 NBFU=   120
 ExpMin= 1.61D-01 ExpMax= 3.05D+03 ExpMxC= 4.57D+02 IAcc=3 IRadAn=         5 AccDes= 0.00D+00
 Harris functional with IExCor=  402 and IRadAn=       5 diagonalized for initial guess.
 HarFok:  IExCor=  402 AccDes= 0.00D+00 IRadAn=         5 IDoV= 1 UseB2=F ITyADJ=14
 ICtDFT=  3500011 ScaDFX=  1.000000  1.000000  1.000000  1.000000
 FoFCou: FMM=F IPFlag=           0 FMFlag=      100000 FMFlg1=           0
         NFxFlg=           0 DoJE=T BraDBF=F KetDBF=T FulRan=T
         wScrn=  0.000000 ICntrl=       500 IOpCl=  0 I1Cent=   200000004 NGrid=           0
         NMat0=    1 NMatS0=      1 NMatT0=    0 NMatD0=    1 NMtDS0=    0 NMtDT0=    0
 Petite list used in FoFCou.
 Keep R1 ints in memory in canonical form, NReq=30147728.
 Requested convergence on RMS density matrix=1.00D-08 within 128 cycles.
 Requested convergence on MAX density matrix=1.00D-06.
 Requested convergence on             energy=1.00D-06.
 No special actions if energy rises.
 Integral accuracy reduced to 1.0D-05 until final iterations.
 Initial convergence to 1.0D-05 achieved.  Increase integral accuracy.
 SCF Done:  E(RB3LYP) =  -232.168632647     A.U. after   13 cycles
            NFock= 13  Conv=0.49D-08     -V/T= 2.0094
 DoSCS=F DFT=T ScalE2(SS,OS)=  1.000000  1.000000
 ExpMin= 1.61D-01 ExpMax= 3.05D+03 ExpMxC= 4.57D+02 IAcc=3 IRadAn=         5 AccDes= 0.00D+00
 HarFok:  IExCor=  205 AccDes= 0.00D+00 IRadAn=         5 IDoV=-2 UseB2=F ITyADJ=14
 ICtDFT= 12500011 ScaDFX=  1.000000  1.000000  1.000000  1.000000
 Range of M.O.s used for correlation:     7   120
 NBasis=   120 NAE=    21 NBE=    21 NFC=     6 NFV=     0
 NROrb=    114 NOA=    15 NOB=    15 NVA=    99 NVB=    99
 Keep R1, R2, and R3 ints in memory in canonical form, NReq=84032236.
 Orbital symmetries:
       Occupied  (A) (A) (A) (A) (A) (A) (A) (A) (A) (A) (A) (A)
                 (A) (A) (A) (A) (A) (A) (A) (A) (A)
       Virtual   (A) (A) (A) (A) (A) (A) (A) (A) (A) (A) (A) (A)
                 (A) (A) (A) (A) (A) (A) (A) (A) (A) (A) (A) (A)
                 (A) (A) (A) (A) (A) (A) (A) (A) (A) (A) (A) (A)
                 (A) (A) (A) (A) (A) (A) (A) (A) (A) (A) (A) (A)
                 (A) (A) (A) (A) (A) (A) (A) (A) (A) (A) (A) (A)
                 (A) (A) (A) (A) (A) (A) (A) (A) (A) (A) (A) (A)
                 (A) (A) (A) (A) (A) (A) (A) (A) (A) (A) (A) (A)
                 (A) (A) (A) (A) (A) (A) (A) (A) (A) (A) (A) (A)
                 (A) (A) (A)
     4 initial guesses have been made.
 Convergence on wavefunction:    0.001000000000000
 Iteration     1 Dimension     4 NMult     0 NNew      4
 CISAX will form     4 AO SS matrices at one time.
 New state      1 was old state      2
 Iteration     2 Dimension     6 NMult     4 NNew      2
 Iteration     3 Dimension     8 NMult     6 NNew      2
 Iteration     4 Dimension    10 NMult     8 NNew      2
 Iteration     5 Dimension    12 NMult    10 NNew      2
 Iteration     6 Dimension    14 NMult    12 NNew      2
 ***********************************************************************
 Excited states from <AA,BB:AA,BB> singles matrix:
 ***********************************************************************
 
 Ground to excited state transition densities written to RWF  633
 Ground to excited state transition electric dipole moments (Au):
       state          X           Y           Z        Dip. S.      Osc.
         1         0.1433     -0.0595     -0.0039      0.0241      0.0031
 Ground to excited state transition velocity dipole moments (Au):
       state          X           Y           Z        Dip. S.      Osc.
         1        -0.0300      0.0130      0.0008      0.0011      0.0037
 Ground to excited state transition magnetic dipole moments (Au):
       state          X           Y           Z
         1        -0.0051      0.0040      0.0407
 Ground to excited state transition velocity quadrupole moments (Au):
       state          XX          YY          ZZ          XY          XZ          YZ
         1         0.0103     -0.0037      0.0015      0.0015      0.0048     -0.0028
 <0|del|b> * <b|rxdel|0> + <0|del|b> * <b|delr+rdel|0>
 Rotatory Strengths (R) in cgs (10**-40 erg-esu-cm/Gauss)
       state          XX          YY          ZZ    R(velocity)    E-M Angle
         1         0.0398      0.4931      0.3363      0.2897       79.93
 1/2[<0|r|b>*<b|rxdel|0> + (<0|rxdel|b>*<b|r|0>)*]
 Rotatory Strengths (R) in cgs (10**-40 erg-esu-cm/Gauss)
       state          XX          YY          ZZ     R(length)
         1         0.5145      0.1676      0.1116      0.2646
  1/2[<0|del|b>*<b|r|0> + (<0|r|b>*<b|del|0>)*] (Au)
       state          X           Y           Z        Dip. S.   Osc.(frdel)
         1        -0.0043     -0.0008     -0.0000      0.0051      0.0034

 Excitation energies and oscillator strengths:
 
 Excited State   1:      Singlet-A      5.2124 eV  237.86 nm  f=0.0031  <S**2>=0.000
      20 -> 22        -0.43306
      20 -> 23        -0.16934
      21 -> 22        -0.25882
      21 -> 23         0.46519
 This state for optimization and/or second-order correction.
 Total Energy, E(TD-HF/TD-DFT) =  -231.977080570    
 Copying the excited state density for this state as the 1-particle RhoCI density.
 SavETr:  write IOETrn=   770 NScale= 10 NData=  16 NLR=1 NState=    1 LETran=      28.

 **********************************************************************

            Population analysis using the SCF Density.

 **********************************************************************

 Orbital symmetries:
       Occupied  (A) (A) (A) (A) (A) (A) (A) (A) (A) (A) (A) (A)
                 (A) (A) (A) (A) (A) (A) (A) (A) (A)
       Virtual   (A) (A) (A) (A) (A) (A) (A) (A) (A) (A) (A) (A)
                 (A) (A) (A) (A) (A) (A) (A) (A) (A) (A) (A) (A)
                 (A) (A) (A) (A) (A) (A) (A) (A) (A) (A) (A) (A)
                 (A) (A) (A) (A) (A) (A) (A) (A) (A) (A) (A) (A)
                 (A) (A) (A) (A) (A) (A) (A) (A) (A) (A) (A) (A)
                 (A) (A) (A) (A) (A) (A) (A) (A) (A) (A) (A) (A)
                 (A) (A) (A) (A) (A) (A) (A) (A) (A) (A) (A) (A)
                 (A) (A) (A) (A) (A) (A) (A) (A) (A) (A) (A) (A)
                 (A) (A) (A)
 The electronic state is 1-A.
 Alpha  occ. eigenvalues --  -10.20657 -10.20021 -10.19412 -10.19119 -10.18546
 Alpha  occ. eigenvalues --  -10.16931  -0.83927  -0.75108  -0.73024  -0.60539
 Alpha  occ. eigenvalues --   -0.60353  -0.51844  -0.47611  -0.44128  -0.41508
 Alpha  occ. eigenvalues --   -0.39978  -0.36242  -0.34652  -0.31878  -0.25254
 Alpha  occ. eigenvalues --   -0.23726
 Alpha virt. eigenvalues --   -0.01275  -0.00148   0.08567   0.12177   0.14641
 Alpha virt. eigenvalues --    0.15610   0.17383   0.17851   0.21660   0.27825
 Alpha virt. eigenvalues --    0.28905   0.30137   0.32246   0.46119   0.48817
 Alpha virt. eigenvalues --    0.52843   0.53519   0.54915   0.58572   0.60019
 Alpha virt. eigenvalues --    0.60189   0.60989   0.61523   0.63223   0.64022
 Alpha virt. eigenvalues --    0.66326   0.66749   0.73776   0.77244   0.79147
 Alpha virt. eigenvalues --    0.83683   0.86434   0.90246   0.91218   0.93386
 Alpha virt. eigenvalues --    0.94235   0.98981   1.05687   1.06129   1.07875
 Alpha virt. eigenvalues --    1.09529   1.14008   1.21511   1.28069   1.32785
 Alpha virt. eigenvalues --    1.35410   1.40609   1.44332   1.49605   1.55363
 Alpha virt. eigenvalues --    1.66797   1.73588   1.76058   1.83935   1.89435
 Alpha virt. eigenvalues --    1.92221   1.94629   1.96815   1.99906   2.00525
 Alpha virt. eigenvalues --    2.02013   2.05721   2.09691   2.22101   2.26582
 Alpha virt. eigenvalues --    2.28128   2.31967   2.35124   2.37588   2.41413
 Alpha virt. eigenvalues --    2.42358   2.43657   2.47764   2.50661   2.54514
 Alpha virt. eigenvalues --    2.55930   2.60045   2.61277   2.63211   2.69357
 Alpha virt. eigenvalues --    2.74888   2.79134   2.84848   2.97240   3.01751
 Alpha virt. eigenvalues --    3.15011   3.19072   3.24134   3.38255   3.46645
 Alpha virt. eigenvalues --    3.59158   3.81869   4.10990   4.15022   4.17759
 Alpha virt. eigenvalues --    4.19903   4.42552   4.45522   4.79529
          Condensed to atoms (all electrons):
               1          2          3          4          5          6
     1  C    4.850165   0.508511  -0.020206  -0.038790  -0.029012   0.517229
     2  C    0.508511   4.887127   0.547681  -0.033167  -0.048343  -0.031580
     3  C   -0.020206   0.547681   4.715466   0.529681  -0.021773  -0.042754
     4  C   -0.038790  -0.033167   0.529681   4.853233   0.531690  -0.027052
     5  C   -0.029012  -0.048343  -0.021773   0.531690   4.839244   0.516880
     6  C    0.517229  -0.031580  -0.042754  -0.027052   0.516880   4.870675
     7  H    0.370017  -0.041541   0.004544   0.000658   0.005019  -0.041616
     8  H   -0.042052   0.003750   0.000110   0.002635  -0.029896   0.356350
     9  H    0.005008   0.001015   0.006829  -0.051013   0.367129  -0.045351
    10  H   -0.000175   0.006893  -0.044372   0.377327  -0.044341   0.005758
    11  H    0.006948  -0.060893   0.377693  -0.059823   0.009121   0.000777
    12  H   -0.033996   0.359006  -0.044011   0.004836   0.000219   0.003547
               7          8          9         10         11         12
     1  C    0.370017  -0.042052   0.005008  -0.000175   0.006948  -0.033996
     2  C   -0.041541   0.003750   0.001015   0.006893  -0.060893   0.359006
     3  C    0.004544   0.000110   0.006829  -0.044372   0.377693  -0.044011
     4  C    0.000658   0.002635  -0.051013   0.377327  -0.059823   0.004836
     5  C    0.005019  -0.029896   0.367129  -0.044341   0.009121   0.000219
     6  C   -0.041616   0.356350  -0.045351   0.005758   0.000777   0.003547
     7  H    0.621979  -0.005470  -0.000190   0.000009  -0.000238  -0.004499
     8  H   -0.005470   0.628907  -0.004159  -0.000085   0.000019  -0.000108
     9  H   -0.000190  -0.004159   0.649976  -0.008416  -0.000568   0.000012
    10  H    0.000009  -0.000085  -0.008416   0.634038  -0.009619  -0.000194
    11  H   -0.000238   0.000019  -0.000568  -0.009619   0.698702  -0.007384
    12  H   -0.004499  -0.000108   0.000012  -0.000194  -0.007384   0.642053
 Mulliken charges:
               1
     1  C   -0.093645
     2  C   -0.098460
     3  C   -0.008888
     4  C   -0.090215
     5  C   -0.095937
     6  C   -0.082865
     7  H    0.091326
     8  H    0.089999
     9  H    0.079726
    10  H    0.083175
    11  H    0.045265
    12  H    0.080519
 Sum of Mulliken charges =  -0.00000
 Mulliken charges with hydrogens summed into heavy atoms:
               1
     1  C   -0.002319
     2  C   -0.017941
     3  C    0.036377
     4  C   -0.007039
     5  C   -0.016211
     6  C    0.007133
 Electronic spatial extent (au):  <R**2>=            465.6672
 Charge=             -0.0000 electrons
 Dipole moment (field-independent basis, Debye):
    X=              0.2417    Y=             -0.0540    Z=              0.0162  Tot=              0.2482
 Quadrupole moment (field-independent basis, Debye-Ang):
   XX=            -30.9164   YY=            -32.1031   ZZ=            -38.5371
   XY=             -0.6884   XZ=             -0.2579   YZ=             -0.4806
 Traceless Quadrupole moment (field-independent basis, Debye-Ang):
   XX=              2.9358   YY=              1.7491   ZZ=             -4.6849
   XY=             -0.6884   XZ=             -0.2579   YZ=             -0.4806
 Octapole moment (field-independent basis, Debye-Ang**2):
  XXX=              1.1363  YYY=             -0.0147  ZZZ=              0.0332  XYY=              2.1065
  XXY=             -0.5380  XXZ=              0.9681  XZZ=              0.8404  YZZ=             -0.0505
  YYZ=             -0.7658  XYZ=              0.5315
 Hexadecapole moment (field-independent basis, Debye-Ang**3):
 XXXX=           -277.4059 YYYY=           -271.7134 ZZZZ=            -40.8106 XXXY=             -2.7649
 XXXZ=             -1.8820 YYYX=             -3.7870 YYYZ=             -3.0897 ZZZX=             -0.0326
 ZZZY=             -0.3409 XXYY=            -93.0682 XXZZ=            -62.2053 YYZZ=            -60.0849
 XXYZ=             -0.9587 YYXZ=             -0.5914 ZZXY=             -0.2301
 N-N= 2.015120947414D+02 E-N=-9.402325830277D+02  KE= 2.299966366132D+02
 1\1\GINC-DESKTOP-PRN5QE3\SP\RB3LYP TD-FC\6-31G(d,p)\C6H6\SHOHEI\10-Nov
 -2023\0\\# TD=(NStates=1) B3LYP/6-31G(d,p)\\ABSSPCT\\0,1\C,0,-0.298837
 8191,1.3763378897,0.0550591194\C,0,1.0745415194,0.8866323305,-0.004507
 4699\C,0,1.3524488043,-0.4609322603,-0.0196379545\C,0,0.2955148739,-1.
 4227490209,0.0406013134\C,0,-1.0500609907,-0.8772865484,-0.0306651748\
 C,0,-1.3763683257,0.4877826174,-0.0470577124\H,0,-0.3996120687,2.42348
 14498,-0.0607443572\H,0,-2.4452879845,1.0116011142,0.1845231271\H,0,-1
 .7330372285,-1.6718795281,0.0419670419\H,0,0.4382432174,-2.405910792,-
 0.0303173675\H,0,2.1264303496,-0.8748525357,0.074166394\H,0,2.02096489
 73,1.5646662935,-0.1857088472\\Version=EM64L-G16RevB.01\State=1-A\HF=-
 232.1686326\RMSD=4.925e-09\PG=C01 [X(C6H6)]\\@


 FAULTILY FAULTLESS, ICILY REGULAR, SPLENDIDLY NULL...
           MAUDE BY TENNYSON
 Job cpu time:       0 days  0 hours  3 minutes 39.2 seconds.
 Elapsed time:       0 days  0 hours  0 minutes 55.3 seconds.
 File lengths (MBytes):  RWF=    116 Int=      0 D2E=      0 Chk=      3 Scr=      1
 Normal termination of Gaussian 16 at Fri Nov 10 17:45:33 2023.
