 Entering Gaussian System, Link 0=g16
 Input=Geometry-139-.com
 Output=Geometry-139-.log
 Initial command:
 /home/shohei/gaussian/g16/l1.exe "/home/shohei/gaussian/scratch/Gau-3188.inp" -scrdir="/home/shohei/gaussian/scratch/"
 Entering Link 1 = /home/shohei/gaussian/g16/l1.exe PID=      3190.
  
 Copyright (c) 1988-2017, Gaussian, Inc.  All Rights Reserved.
  
 This is part of the Gaussian(R) 16 program.  It is based on
 the Gaussian(R) 09 system (copyright 2009, Gaussian, Inc.),
 the Gaussian(R) 03 system (copyright 2003, Gaussian, Inc.),
 the Gaussian(R) 98 system (copyright 1998, Gaussian, Inc.),
 the Gaussian(R) 94 system (copyright 1995, Gaussian, Inc.),
 the Gaussian 92(TM) system (copyright 1992, Gaussian, Inc.),
 the Gaussian 90(TM) system (copyright 1990, Gaussian, Inc.),
 the Gaussian 88(TM) system (copyright 1988, Gaussian, Inc.),
 the Gaussian 86(TM) system (copyright 1986, Carnegie Mellon
 University), and the Gaussian 82(TM) system (copyright 1983,
 Carnegie Mellon University). Gaussian is a federally registered
 trademark of Gaussian, Inc.
  
 This software contains proprietary and confidential information,
 including trade secrets, belonging to Gaussian, Inc.
  
 This software is provided under written license and may be
 used, copied, transmitted, or stored only in accord with that
 written license.
  
 The following legend is applicable only to US Government
 contracts under FAR:
  
                    RESTRICTED RIGHTS LEGEND
  
 Use, reproduction and disclosure by the US Government is
 subject to restrictions as set forth in subparagraphs (a)
 and (c) of the Commercial Computer Software - Restricted
 Rights clause in FAR 52.227-19.
  
 Gaussian, Inc.
 340 Quinnipiac St., Bldg. 40, Wallingford CT 06492
  
  
 ---------------------------------------------------------------
 Warning -- This program may not be used in any manner that
 competes with the business of Gaussian, Inc. or will provide
 assistance to any competitor of Gaussian, Inc.  The licensee
 of this program is prohibited from giving any competitor of
 Gaussian, Inc. access to this program.  By using this program,
 the user acknowledges that Gaussian, Inc. is engaged in the
 business of creating and licensing software in the field of
 computational chemistry and represents and warrants to the
 licensee that it is not a competitor of Gaussian, Inc. and that
 it will not use this program in any manner prohibited above.
 ---------------------------------------------------------------
  

 Cite this work as:
 Gaussian 16, Revision B.01,
 M. J. Frisch, G. W. Trucks, H. B. Schlegel, G. E. Scuseria, 
 M. A. Robb, J. R. Cheeseman, G. Scalmani, V. Barone, 
 G. A. Petersson, H. Nakatsuji, X. Li, M. Caricato, A. V. Marenich, 
 J. Bloino, B. G. Janesko, R. Gomperts, B. Mennucci, H. P. Hratchian, 
 J. V. Ortiz, A. F. Izmaylov, J. L. Sonnenberg, D. Williams-Young, 
 F. Ding, F. Lipparini, F. Egidi, J. Goings, B. Peng, A. Petrone, 
 T. Henderson, D. Ranasinghe, V. G. Zakrzewski, J. Gao, N. Rega, 
 G. Zheng, W. Liang, M. Hada, M. Ehara, K. Toyota, R. Fukuda, 
 J. Hasegawa, M. Ishida, T. Nakajima, Y. Honda, O. Kitao, H. Nakai, 
 T. Vreven, K. Throssell, J. A. Montgomery, Jr., J. E. Peralta, 
 F. Ogliaro, M. J. Bearpark, J. J. Heyd, E. N. Brothers, K. N. Kudin, 
 V. N. Staroverov, T. A. Keith, R. Kobayashi, J. Normand, 
 K. Raghavachari, A. P. Rendell, J. C. Burant, S. S. Iyengar, 
 J. Tomasi, M. Cossi, J. M. Millam, M. Klene, C. Adamo, R. Cammi, 
 J. W. Ochterski, R. L. Martin, K. Morokuma, O. Farkas, 
 J. B. Foresman, and D. J. Fox, Gaussian, Inc., Wallingford CT, 2016.
 
 ******************************************
 Gaussian 16:  EM64L-G16RevB.01 20-Dec-2017
                10-Nov-2023 
 ******************************************
 %nproc=4
 Will use up to    4 processors via shared memory.
 %Mem=2Gb
 ---------------------------------
 # TD=(NStates=1) B3LYP/6-31G(d,p)
 ---------------------------------
 1/38=1,172=1/1;
 2/12=2,17=6,18=5,40=1/2;
 3/5=1,6=6,7=101,11=9,25=1,30=1,74=-5/1,2,3,8;
 4//1;
 5/5=2,38=5/2;
 8/6=1,10=2,108=1/1;
 9/41=1,42=1,70=2/14;
 6/7=2,8=2,9=2,10=2/1;
 99/5=1,9=1/99;
 -------
 ABSSPCT
 -------
 Symbolic Z-matrix:
 Charge =  0 Multiplicity = 1
 6                    -0.2168    1.38876  -0.04833 
 6                     1.0583    0.93458   0.00603 
 6                     1.31876  -0.46002   0.07135 
 6                     0.24145  -1.38097  -0.06955 
 6                    -1.03339  -0.93101   0.02729 
 6                    -1.33857   0.44925   0.0462 
 1                    -0.41668   2.43411   0.10434 
 1                    -2.49597   0.76548  -0.1242 
 1                    -1.75064  -1.51153  -0.10846 
 1                     0.27372  -2.30619   0.02904 
 1                     2.2827   -1.08788  -0.07455 
 1                     1.7506    1.72552  -0.18309 
 
                          Input orientation:                          
 ---------------------------------------------------------------------
 Center     Atomic      Atomic             Coordinates (Angstroms)
 Number     Number       Type             X           Y           Z
 ---------------------------------------------------------------------
      1          6           0       -0.216797    1.388759   -0.048329
      2          6           0        1.058298    0.934584    0.006033
      3          6           0        1.318762   -0.460024    0.071345
      4          6           0        0.241447   -1.380975   -0.069553
      5          6           0       -1.033393   -0.931006    0.027286
      6          6           0       -1.338567    0.449249    0.046199
      7          1           0       -0.416684    2.434114    0.104338
      8          1           0       -2.495967    0.765475   -0.124198
      9          1           0       -1.750641   -1.511525   -0.108463
     10          1           0        0.273722   -2.306189    0.029041
     11          1           0        2.282696   -1.087877   -0.074549
     12          1           0        1.750604    1.725516   -0.183089
 ---------------------------------------------------------------------
                    Distance matrix (angstroms):
                    1          2          3          4          5
     1  C    0.000000
     2  C    1.354657   0.000000
     3  C    2.406296   1.420224   0.000000
     4  C    2.807466   2.456577   1.424293   0.000000
     5  C    2.460458   2.802864   2.399250   1.355385   0.000000
     6  C    1.466282   2.445838   2.808702   2.420653   1.413715
     7  H    1.075188   2.105665   3.374744   3.875342   3.422031
     8  H    2.364076   3.560668   4.011514   3.479033   2.245020
     9  H    3.281454   3.726486   3.249496   1.996741   0.932671
    10  H    3.728167   3.334470   2.121844   0.931012   1.897283
    11  H    3.518790   2.365585   1.159592   2.062191   3.321360
    12  H    2.000558   1.068003   2.242278   3.455536   3.853830
                    6          7          8          9         10
     6  C    0.000000
     7  H    2.189278   0.000000
     8  H    1.211862   2.675818   0.000000
     9  H    2.009567   4.170467   2.395932   0.000000
    10  H    3.192523   4.790908   4.138814   2.179093   0.000000
    11  H    3.935846   4.441067   5.125720   4.055668   2.351806
    12  H    3.350284   2.298231   4.354137   4.768933   4.298932
                   11         12
    11  H    0.000000
    12  H    2.865325   0.000000
 Stoichiometry    C6H6
 Framework group  C1[X(C6H6)]
 Deg. of freedom    30
 Full point group                 C1      NOp   1
 Largest Abelian subgroup         C1      NOp   1
 Largest concise Abelian subgroup C1      NOp   1
                         Standard orientation:                         
 ---------------------------------------------------------------------
 Center     Atomic      Atomic             Coordinates (Angstroms)
 Number     Number       Type             X           Y           Z
 ---------------------------------------------------------------------
      1          6           0       -1.325887    0.462963    0.044543
      2          6           0       -1.112670   -0.873704   -0.009820
      3          6           0        0.210743   -1.384929   -0.075132
      4          6           0        1.313254   -0.494297    0.065766
      5          6           0        1.104125    0.841352   -0.031073
      6          6           0       -0.196996    1.393905   -0.049985
      7          1           0       -2.317026    0.850735   -0.108125
      8          1           0       -0.296127    2.589626    0.120411
      9          1           0        1.806074    1.440281    0.104677
     10          1           0        2.216945   -0.695304   -0.032827
     11          1           0        0.651636   -2.447465    0.070763
     12          1           0       -2.016916   -1.409615    0.179303
 ---------------------------------------------------------------------
 Rotational constants (GHZ):           5.7563447           5.5619200           2.8370117
 Standard basis: 6-31G(d,p) (6D, 7F)
 There are   120 symmetry adapted cartesian basis functions of A   symmetry.
 There are   120 symmetry adapted basis functions of A   symmetry.
   120 basis functions,   210 primitive gaussians,   120 cartesian basis functions
    21 alpha electrons       21 beta electrons
       nuclear repulsion energy       203.4014456160 Hartrees.
 NAtoms=   12 NActive=   12 NUniq=   12 SFac= 1.00D+00 NAtFMM=   60 NAOKFM=F Big=F
 Integral buffers will be    131072 words long.
 Regular integral format.
 Two-electron integral symmetry is turned on.
 One-electron integrals computed using PRISM.
 NBasis=   120 RedAO= T EigKep=  9.39D-04  NBF=   120
 NBsUse=   120 1.00D-06 EigRej= -1.00D+00 NBFU=   120
 ExpMin= 1.61D-01 ExpMax= 3.05D+03 ExpMxC= 4.57D+02 IAcc=3 IRadAn=         5 AccDes= 0.00D+00
 Harris functional with IExCor=  402 and IRadAn=       5 diagonalized for initial guess.
 HarFok:  IExCor=  402 AccDes= 0.00D+00 IRadAn=         5 IDoV= 1 UseB2=F ITyADJ=14
 ICtDFT=  3500011 ScaDFX=  1.000000  1.000000  1.000000  1.000000
 FoFCou: FMM=F IPFlag=           0 FMFlag=      100000 FMFlg1=           0
         NFxFlg=           0 DoJE=T BraDBF=F KetDBF=T FulRan=T
         wScrn=  0.000000 ICntrl=       500 IOpCl=  0 I1Cent=   200000004 NGrid=           0
         NMat0=    1 NMatS0=      1 NMatT0=    0 NMatD0=    1 NMtDS0=    0 NMtDT0=    0
 Petite list used in FoFCou.
 Keep R1 ints in memory in canonical form, NReq=30147728.
 Requested convergence on RMS density matrix=1.00D-08 within 128 cycles.
 Requested convergence on MAX density matrix=1.00D-06.
 Requested convergence on             energy=1.00D-06.
 No special actions if energy rises.
 Integral accuracy reduced to 1.0D-05 until final iterations.
 Initial convergence to 1.0D-05 achieved.  Increase integral accuracy.
 SCF Done:  E(RB3LYP) =  -232.170035278     A.U. after   14 cycles
            NFock= 14  Conv=0.43D-08     -V/T= 2.0085
 DoSCS=F DFT=T ScalE2(SS,OS)=  1.000000  1.000000
 ExpMin= 1.61D-01 ExpMax= 3.05D+03 ExpMxC= 4.57D+02 IAcc=3 IRadAn=         5 AccDes= 0.00D+00
 HarFok:  IExCor=  205 AccDes= 0.00D+00 IRadAn=         5 IDoV=-2 UseB2=F ITyADJ=14
 ICtDFT= 12500011 ScaDFX=  1.000000  1.000000  1.000000  1.000000
 Range of M.O.s used for correlation:     7   120
 NBasis=   120 NAE=    21 NBE=    21 NFC=     6 NFV=     0
 NROrb=    114 NOA=    15 NOB=    15 NVA=    99 NVB=    99
 Keep R1, R2, and R3 ints in memory in canonical form, NReq=84032236.
 Orbital symmetries:
       Occupied  (A) (A) (A) (A) (A) (A) (A) (A) (A) (A) (A) (A)
                 (A) (A) (A) (A) (A) (A) (A) (A) (A)
       Virtual   (A) (A) (A) (A) (A) (A) (A) (A) (A) (A) (A) (A)
                 (A) (A) (A) (A) (A) (A) (A) (A) (A) (A) (A) (A)
                 (A) (A) (A) (A) (A) (A) (A) (A) (A) (A) (A) (A)
                 (A) (A) (A) (A) (A) (A) (A) (A) (A) (A) (A) (A)
                 (A) (A) (A) (A) (A) (A) (A) (A) (A) (A) (A) (A)
                 (A) (A) (A) (A) (A) (A) (A) (A) (A) (A) (A) (A)
                 (A) (A) (A) (A) (A) (A) (A) (A) (A) (A) (A) (A)
                 (A) (A) (A) (A) (A) (A) (A) (A) (A) (A) (A) (A)
                 (A) (A) (A)
     4 initial guesses have been made.
 Convergence on wavefunction:    0.001000000000000
 Iteration     1 Dimension     4 NMult     0 NNew      4
 CISAX will form     4 AO SS matrices at one time.
 New state      1 was old state      2
 Iteration     2 Dimension     6 NMult     4 NNew      2
 Iteration     3 Dimension     8 NMult     6 NNew      2
 Iteration     4 Dimension    10 NMult     8 NNew      2
 Iteration     5 Dimension    12 NMult    10 NNew      2
 Iteration     6 Dimension    14 NMult    12 NNew      2
 ***********************************************************************
 Excited states from <AA,BB:AA,BB> singles matrix:
 ***********************************************************************
 
 Ground to excited state transition densities written to RWF  633
 Ground to excited state transition electric dipole moments (Au):
       state          X           Y           Z        Dip. S.      Osc.
         1         0.0005      0.0679     -0.0106      0.0047      0.0006
 Ground to excited state transition velocity dipole moments (Au):
       state          X           Y           Z        Dip. S.      Osc.
         1        -0.0012     -0.0154      0.0021      0.0002      0.0008
 Ground to excited state transition magnetic dipole moments (Au):
       state          X           Y           Z
         1        -0.0200     -0.0044     -0.0143
 Ground to excited state transition velocity quadrupole moments (Au):
       state          XX          YY          ZZ          XY          XZ          YZ
         1         0.0026     -0.0018      0.0018     -0.0099      0.0078     -0.0042
 <0|del|b> * <b|rxdel|0> + <0|del|b> * <b|delr+rdel|0>
 Rotatory Strengths (R) in cgs (10**-40 erg-esu-cm/Gauss)
       state          XX          YY          ZZ    R(velocity)    E-M Angle
         1         0.2467      0.0339     -0.0617      0.0729       90.00
 1/2[<0|r|b>*<b|rxdel|0> + (<0|rxdel|b>*<b|r|0>)*]
 Rotatory Strengths (R) in cgs (10**-40 erg-esu-cm/Gauss)
       state          XX          YY          ZZ     R(length)
         1         0.0073      0.2096     -0.1070      0.0366
  1/2[<0|del|b>*<b|r|0> + (<0|r|b>*<b|del|0>)*] (Au)
       state          X           Y           Z        Dip. S.   Osc.(frdel)
         1        -0.0000     -0.0010     -0.0000      0.0011      0.0007

 Excitation energies and oscillator strengths:
 
 Excited State   1:      Singlet-A      5.3362 eV  232.35 nm  f=0.0006  <S**2>=0.000
      20 -> 22         0.50177
      21 -> 23        -0.48886
 This state for optimization and/or second-order correction.
 Total Energy, E(TD-HF/TD-DFT) =  -231.973934673    
 Copying the excited state density for this state as the 1-particle RhoCI density.
 SavETr:  write IOETrn=   770 NScale= 10 NData=  16 NLR=1 NState=    1 LETran=      28.

 **********************************************************************

            Population analysis using the SCF Density.

 **********************************************************************

 Orbital symmetries:
       Occupied  (A) (A) (A) (A) (A) (A) (A) (A) (A) (A) (A) (A)
                 (A) (A) (A) (A) (A) (A) (A) (A) (A)
       Virtual   (A) (A) (A) (A) (A) (A) (A) (A) (A) (A) (A) (A)
                 (A) (A) (A) (A) (A) (A) (A) (A) (A) (A) (A) (A)
                 (A) (A) (A) (A) (A) (A) (A) (A) (A) (A) (A) (A)
                 (A) (A) (A) (A) (A) (A) (A) (A) (A) (A) (A) (A)
                 (A) (A) (A) (A) (A) (A) (A) (A) (A) (A) (A) (A)
                 (A) (A) (A) (A) (A) (A) (A) (A) (A) (A) (A) (A)
                 (A) (A) (A) (A) (A) (A) (A) (A) (A) (A) (A) (A)
                 (A) (A) (A) (A) (A) (A) (A) (A) (A) (A) (A) (A)
                 (A) (A) (A)
 The electronic state is 1-A.
 Alpha  occ. eigenvalues --  -10.20380 -10.20258 -10.19136 -10.19038 -10.16967
 Alpha  occ. eigenvalues --  -10.16651  -0.84760  -0.76194  -0.72679  -0.61136
 Alpha  occ. eigenvalues --   -0.60015  -0.51732  -0.47048  -0.44395  -0.42787
 Alpha  occ. eigenvalues --   -0.39443  -0.36800  -0.33433  -0.32808  -0.25691
 Alpha  occ. eigenvalues --   -0.23807
 Alpha virt. eigenvalues --   -0.01586   0.00497   0.08989   0.12230   0.14231
 Alpha virt. eigenvalues --    0.15758   0.17192   0.18658   0.22197   0.27734
 Alpha virt. eigenvalues --    0.29793   0.30727   0.32461   0.46697   0.49270
 Alpha virt. eigenvalues --    0.52518   0.53304   0.55231   0.59079   0.60040
 Alpha virt. eigenvalues --    0.60531   0.61912   0.62762   0.63064   0.65516
 Alpha virt. eigenvalues --    0.66123   0.67477   0.74147   0.76155   0.79349
 Alpha virt. eigenvalues --    0.82577   0.85984   0.87305   0.91265   0.93938
 Alpha virt. eigenvalues --    0.95543   0.98473   1.04424   1.06666   1.09225
 Alpha virt. eigenvalues --    1.11139   1.11691   1.16323   1.27898   1.33930
 Alpha virt. eigenvalues --    1.35489   1.41126   1.43904   1.50280   1.60962
 Alpha virt. eigenvalues --    1.70704   1.73451   1.75829   1.80896   1.87599
 Alpha virt. eigenvalues --    1.94193   1.95245   1.97868   1.99192   2.02862
 Alpha virt. eigenvalues --    2.03131   2.09722   2.13772   2.19722   2.27823
 Alpha virt. eigenvalues --    2.30034   2.33579   2.35451   2.39395   2.40111
 Alpha virt. eigenvalues --    2.43825   2.46420   2.48473   2.50509   2.53614
 Alpha virt. eigenvalues --    2.54436   2.56189   2.60740   2.67303   2.69286
 Alpha virt. eigenvalues --    2.78229   2.81481   2.83922   2.99660   3.03483
 Alpha virt. eigenvalues --    3.16428   3.19222   3.24711   3.35677   3.49883
 Alpha virt. eigenvalues --    3.68356   3.84357   4.05727   4.12532   4.15917
 Alpha virt. eigenvalues --    4.17037   4.42606   4.46033   4.81715
          Condensed to atoms (all electrons):
               1          2          3          4          5          6
     1  C    4.843580   0.535709  -0.019043  -0.043888  -0.024868   0.501929
     2  C    0.535709   4.829579   0.499181  -0.020596  -0.048978  -0.025374
     3  C   -0.019043   0.499181   4.912018   0.510650  -0.019864  -0.056872
     4  C   -0.043888  -0.020596   0.510650   4.782041   0.557026  -0.025098
     5  C   -0.024868  -0.048978  -0.019864   0.557026   4.752621   0.534743
     6  C    0.501929  -0.025374  -0.056872  -0.025098   0.534743   4.903771
     7  H    0.371528  -0.044510   0.005896   0.000259   0.004833  -0.041665
     8  H   -0.032559   0.003644   0.000272   0.004877  -0.037777   0.350537
     9  H    0.007095   0.000265   0.009479  -0.055058   0.378099  -0.055353
    10  H   -0.000073   0.006659  -0.052118   0.382131  -0.053143   0.009733
    11  H    0.003656  -0.032483   0.358091  -0.051167   0.005967   0.000503
    12  H   -0.049978   0.376349  -0.040692   0.003697   0.000232   0.006276
               7          8          9         10         11         12
     1  C    0.371528  -0.032559   0.007095  -0.000073   0.003656  -0.049978
     2  C   -0.044510   0.003644   0.000265   0.006659  -0.032483   0.376349
     3  C    0.005896   0.000272   0.009479  -0.052118   0.358091  -0.040692
     4  C    0.000259   0.004877  -0.055058   0.382131  -0.051167   0.003697
     5  C    0.004833  -0.037777   0.378099  -0.053143   0.005967   0.000232
     6  C   -0.041665   0.350537  -0.055353   0.009733   0.000503   0.006276
     7  H    0.626738  -0.003247  -0.000250   0.000011  -0.000109  -0.010180
     8  H   -0.003247   0.644982  -0.007485  -0.000276   0.000009  -0.000165
     9  H   -0.000250  -0.007485   0.675745  -0.014309  -0.000394   0.000025
    10  H    0.000011  -0.000276  -0.014309   0.660750  -0.007594  -0.000144
    11  H   -0.000109   0.000009  -0.000394  -0.007594   0.641642  -0.003479
    12  H   -0.010180  -0.000165   0.000025  -0.000144  -0.003479   0.625390
 Mulliken charges:
               1
     1  C   -0.093088
     2  C   -0.079445
     3  C   -0.106997
     4  C   -0.044873
     5  C   -0.048891
     6  C   -0.103131
     7  H    0.090696
     8  H    0.077188
     9  H    0.062141
    10  H    0.068375
    11  H    0.085359
    12  H    0.092668
 Sum of Mulliken charges =  -0.00000
 Mulliken charges with hydrogens summed into heavy atoms:
               1
     1  C   -0.002393
     2  C    0.013223
     3  C   -0.021638
     4  C    0.023501
     5  C    0.013250
     6  C   -0.025943
 Electronic spatial extent (au):  <R**2>=            458.2310
 Charge=             -0.0000 electrons
 Dipole moment (field-independent basis, Debye):
    X=              0.1587    Y=              0.1126    Z=              0.2029  Tot=              0.2812
 Quadrupole moment (field-independent basis, Debye-Ang):
   XX=            -30.8108   YY=            -32.5763   ZZ=            -38.3238
   XY=             -0.0296   XZ=              0.0331   YZ=             -0.0330
 Traceless Quadrupole moment (field-independent basis, Debye-Ang):
   XX=              3.0928   YY=              1.3273   ZZ=             -4.4202
   XY=             -0.0296   XZ=              0.0331   YZ=             -0.0330
 Octapole moment (field-independent basis, Debye-Ang**2):
  XXX=              0.4435  YYY=              2.3012  ZZZ=              0.2790  XYY=              1.8223
  XXY=             -0.5958  XXZ=              0.2366  XZZ=              0.6306  YZZ=             -0.0311
  YYZ=              1.6438  XYZ=              0.7262
 Hexadecapole moment (field-independent basis, Debye-Ang**3):
 XXXX=           -265.9581 YYYY=           -276.1081 ZZZZ=            -40.6306 XXXY=              2.1056
 XXXZ=              0.1438 YYYX=             -2.3498 YYYZ=              0.6362 ZZZX=              0.0716
 ZZZY=             -0.0288 XXYY=            -92.1487 XXZZ=            -59.3106 YYZZ=            -60.8087
 XXYZ=             -0.9356 YYXZ=              0.0465 ZZXY=              0.6007
 N-N= 2.034014456160D+02 E-N=-9.441936812352D+02  KE= 2.302174323033D+02
 1\1\GINC-DESKTOP-PRN5QE3\SP\RB3LYP TD-FC\6-31G(d,p)\C6H6\SHOHEI\10-Nov
 -2023\0\\# TD=(NStates=1) B3LYP/6-31G(d,p)\\ABSSPCT\\0,1\C,0,-0.216796
 8837,1.3887589232,-0.0483294029\C,0,1.0582976445,0.9345836374,0.006033
 2742\C,0,1.3187621137,-0.4600237626,0.0713452629\C,0,0.2414470312,-1.3
 809748777,-0.0695529526\C,0,-1.033393464,-0.931005611,0.0272862838\C,0
 ,-1.3385666725,0.4492489154,0.0461986192\H,0,-0.4166842696,2.434114092
 4,0.1043383557\H,0,-2.4959669893,0.7654754756,-0.1241980281\H,0,-1.750
 6414025,-1.5115250211,-0.1084634544\H,0,0.2737223957,-2.3061885655,0.0
 290409075\H,0,2.2826963702,-1.0878772044,-0.0745491158\H,0,1.750603912
 7,1.725516065,-0.1830893934\\Version=EM64L-G16RevB.01\State=1-A\HF=-23
 2.1700353\RMSD=4.276e-09\PG=C01 [X(C6H6)]\\@


 I WOULD TAKE COUNSEL OF MYSELF.
 I WOULD STOP AND LOOK WITHIN
 AND LOOKING WITHIN, LOOK BACK, ALSO
 THAT I MAY LOOK AHEAD WITH CLEARER UNDERSTANDING
 OF THE WAY I HAVE BEEN MOVING, AND IN WHAT DIRECTION.
 I NEED TO KNOW IF I AM GOING FORWARD OR RETREATING,
 WHETHER I HAVE BEEN WASTING, OR ENJOYING
 THE PRECIOUS MOMENTS OF LIFE.  THERE HAVE BEEN FRICTIONS,
 ANNOYANCES AND SOMETIMES WRATH,
 BUT WERE THEY BECAUSE I WAS RIGHT AND OTHERS WRONG.....
 HAVE I HAD MY THOUGHTS TOO SHARPLY FOCUSED
 ON THAT WHICH PLEASED ME, SERVED MY SELF-ESTEEM,
 UNDERGIRDED MY SECURITY,
 OF WHICH I DID NOT INQUIRE WHETHER IT SERVED OR HAMPERED OTHERS.....
 HAVE I BEEN TRYING TO STOP THE CLOCK
 TO HOLD THE WORLD
 IN PERPETUATION OF WHAT WAS AN IS ALREADY SLIPPING AWAY.....
 HAVE I BEEN CRITICAL OF OTHERS FOR WHAT REALLY NEEDED CHANGING IN ME...
 LET ME INDEED TAKE COUNSEL OF MYSELF
 AND SET MY DIRECTIONS STRAIGHT.

                          R.T. WESTON AS ADAPTED BY D. OSBORN 1967
 Job cpu time:       0 days  0 hours  3 minutes 42.6 seconds.
 Elapsed time:       0 days  0 hours  0 minutes 56.3 seconds.
 File lengths (MBytes):  RWF=    116 Int=      0 D2E=      0 Chk=      3 Scr=      1
 Normal termination of Gaussian 16 at Fri Nov 10 18:02:04 2023.
