 Entering Gaussian System, Link 0=g16
 Input=Geometry-378-.com
 Output=Geometry-378-.log
 Initial command:
 /home/shohei/gaussian/g16/l1.exe "/home/shohei/gaussian/scratch/Gau-2314.inp" -scrdir="/home/shohei/gaussian/scratch/"
 Entering Link 1 = /home/shohei/gaussian/g16/l1.exe PID=      2316.
  
 Copyright (c) 1988-2017, Gaussian, Inc.  All Rights Reserved.
  
 This is part of the Gaussian(R) 16 program.  It is based on
 the Gaussian(R) 09 system (copyright 2009, Gaussian, Inc.),
 the Gaussian(R) 03 system (copyright 2003, Gaussian, Inc.),
 the Gaussian(R) 98 system (copyright 1998, Gaussian, Inc.),
 the Gaussian(R) 94 system (copyright 1995, Gaussian, Inc.),
 the Gaussian 92(TM) system (copyright 1992, Gaussian, Inc.),
 the Gaussian 90(TM) system (copyright 1990, Gaussian, Inc.),
 the Gaussian 88(TM) system (copyright 1988, Gaussian, Inc.),
 the Gaussian 86(TM) system (copyright 1986, Carnegie Mellon
 University), and the Gaussian 82(TM) system (copyright 1983,
 Carnegie Mellon University). Gaussian is a federally registered
 trademark of Gaussian, Inc.
  
 This software contains proprietary and confidential information,
 including trade secrets, belonging to Gaussian, Inc.
  
 This software is provided under written license and may be
 used, copied, transmitted, or stored only in accord with that
 written license.
  
 The following legend is applicable only to US Government
 contracts under FAR:
  
                    RESTRICTED RIGHTS LEGEND
  
 Use, reproduction and disclosure by the US Government is
 subject to restrictions as set forth in subparagraphs (a)
 and (c) of the Commercial Computer Software - Restricted
 Rights clause in FAR 52.227-19.
  
 Gaussian, Inc.
 340 Quinnipiac St., Bldg. 40, Wallingford CT 06492
  
  
 ---------------------------------------------------------------
 Warning -- This program may not be used in any manner that
 competes with the business of Gaussian, Inc. or will provide
 assistance to any competitor of Gaussian, Inc.  The licensee
 of this program is prohibited from giving any competitor of
 Gaussian, Inc. access to this program.  By using this program,
 the user acknowledges that Gaussian, Inc. is engaged in the
 business of creating and licensing software in the field of
 computational chemistry and represents and warrants to the
 licensee that it is not a competitor of Gaussian, Inc. and that
 it will not use this program in any manner prohibited above.
 ---------------------------------------------------------------
  

 Cite this work as:
 Gaussian 16, Revision B.01,
 M. J. Frisch, G. W. Trucks, H. B. Schlegel, G. E. Scuseria, 
 M. A. Robb, J. R. Cheeseman, G. Scalmani, V. Barone, 
 G. A. Petersson, H. Nakatsuji, X. Li, M. Caricato, A. V. Marenich, 
 J. Bloino, B. G. Janesko, R. Gomperts, B. Mennucci, H. P. Hratchian, 
 J. V. Ortiz, A. F. Izmaylov, J. L. Sonnenberg, D. Williams-Young, 
 F. Ding, F. Lipparini, F. Egidi, J. Goings, B. Peng, A. Petrone, 
 T. Henderson, D. Ranasinghe, V. G. Zakrzewski, J. Gao, N. Rega, 
 G. Zheng, W. Liang, M. Hada, M. Ehara, K. Toyota, R. Fukuda, 
 J. Hasegawa, M. Ishida, T. Nakajima, Y. Honda, O. Kitao, H. Nakai, 
 T. Vreven, K. Throssell, J. A. Montgomery, Jr., J. E. Peralta, 
 F. Ogliaro, M. J. Bearpark, J. J. Heyd, E. N. Brothers, K. N. Kudin, 
 V. N. Staroverov, T. A. Keith, R. Kobayashi, J. Normand, 
 K. Raghavachari, A. P. Rendell, J. C. Burant, S. S. Iyengar, 
 J. Tomasi, M. Cossi, J. M. Millam, M. Klene, C. Adamo, R. Cammi, 
 J. W. Ochterski, R. L. Martin, K. Morokuma, O. Farkas, 
 J. B. Foresman, and D. J. Fox, Gaussian, Inc., Wallingford CT, 2016.
 
 ******************************************
 Gaussian 16:  EM64L-G16RevB.01 20-Dec-2017
                10-Nov-2023 
 ******************************************
 %nproc=4
 Will use up to    4 processors via shared memory.
 %Mem=2Gb
 ---------------------------------
 # TD=(NStates=1) B3LYP/6-31G(d,p)
 ---------------------------------
 1/38=1,172=1/1;
 2/12=2,17=6,18=5,40=1/2;
 3/5=1,6=6,7=101,11=9,25=1,30=1,74=-5/1,2,3,8;
 4//1;
 5/5=2,38=5/2;
 8/6=1,10=2,108=1/1;
 9/41=1,42=1,70=2/14;
 6/7=2,8=2,9=2,10=2/1;
 99/5=1,9=1/99;
 -------
 ABSSPCT
 -------
 Symbolic Z-matrix:
 Charge =  0 Multiplicity = 1
 6                    -0.30657   1.44013   0.00665 
 6                     1.08507   0.89926  -0.06116 
 6                     1.36549  -0.5048    0.03302 
 6                     0.2905   -1.38882  -0.03084 
 6                    -1.09953  -0.96015   0.00478 
 6                    -1.31853   0.50509   0.05573 
 1                    -0.49643   2.58275  -0.02689 
 1                    -2.33829   0.83734  -0.0713 
 1                    -1.98801  -1.64992  -0.23631 
 1                     0.50402  -2.29745   0.01511 
 1                     2.3925   -0.91147   0.27682 
 1                     1.78215   1.55034  -0.01976 
 
                          Input orientation:                          
 ---------------------------------------------------------------------
 Center     Atomic      Atomic             Coordinates (Angstroms)
 Number     Number       Type             X           Y           Z
 ---------------------------------------------------------------------
      1          6           0       -0.306571    1.440126    0.006645
      2          6           0        1.085074    0.899257   -0.061162
      3          6           0        1.365493   -0.504795    0.033025
      4          6           0        0.290500   -1.388817   -0.030841
      5          6           0       -1.099533   -0.960146    0.004783
      6          6           0       -1.318526    0.505085    0.055732
      7          1           0       -0.496426    2.582751   -0.026890
      8          1           0       -2.338285    0.837342   -0.071304
      9          1           0       -1.988008   -1.649924   -0.236306
     10          1           0        0.504021   -2.297447    0.015105
     11          1           0        2.392503   -0.911466    0.276818
     12          1           0        1.782153    1.550342   -0.019758
 ---------------------------------------------------------------------
                    Distance matrix (angstroms):
                    1          2          3          4          5
     1  C    0.000000
     2  C    1.494595   0.000000
     3  C    2.564998   1.434876   0.000000
     4  C    2.891508   2.422303   1.393263   0.000000
     5  C    2.527864   2.869536   2.506889   1.455067   0.000000
     6  C    1.378682   2.438509   2.867810   2.486629   1.482382
     7  H    1.158775   2.310080   3.606005   4.048780   3.594003
     8  H    2.120681   3.423934   3.940836   3.444986   2.184321
     9  H    3.526282   3.996603   3.553847   2.302606   1.150351
    10  H    3.824472   3.249978   1.988984   0.934511   2.088029
    11  H    3.589983   2.258831   1.131179   2.177369   3.502954
    12  H    2.091797   0.954749   2.097613   3.296029   3.821945
                    6          7          8          9         10
     6  C    0.000000
     7  H    2.235927   0.000000
     8  H    1.080019   2.537887   0.000000
     9  H    2.275425   4.492684   2.517223   0.000000
    10  H    3.343279   4.981866   4.232383   2.587026   0.000000
    11  H    3.978345   4.543974   5.055677   4.471856   2.357075
    12  H    3.272991   2.501568   4.181990   4.950022   4.054666
                   11         12
    11  H    0.000000
    12  H    2.553621   0.000000
 Stoichiometry    C6H6
 Framework group  C1[X(C6H6)]
 Deg. of freedom    30
 Full point group                 C1      NOp   1
 Largest Abelian subgroup         C1      NOp   1
 Largest concise Abelian subgroup C1      NOp   1
                         Standard orientation:                         
 ---------------------------------------------------------------------
 Center     Atomic      Atomic             Coordinates (Angstroms)
 Number     Number       Type             X           Y           Z
 ---------------------------------------------------------------------
      1          6           0        1.262413   -0.754789    0.010713
      2          6           0       -0.080061   -1.406420   -0.072683
      3          6           0       -1.300736   -0.657693    0.018032
      4          6           0       -1.217109    0.732081   -0.034110
      5          6           0        0.042272    1.459102    0.017059
      6          6           0        1.264892    0.622580    0.070804
      7          1           0        2.229386   -1.392562   -0.020425
      8          1           0        2.203016    1.145071   -0.044814
      9          1           0        0.142799    2.581450   -0.214319
     10          1           0       -2.028748    1.193247    0.009235
     11          1           0       -2.299244   -1.135813    0.250301
     12          1           0       -0.077229   -2.360565   -0.038862
 ---------------------------------------------------------------------
 Rotational constants (GHZ):           5.5544820           5.2555171           2.7075919
 Standard basis: 6-31G(d,p) (6D, 7F)
 There are   120 symmetry adapted cartesian basis functions of A   symmetry.
 There are   120 symmetry adapted basis functions of A   symmetry.
   120 basis functions,   210 primitive gaussians,   120 cartesian basis functions
    21 alpha electrons       21 beta electrons
       nuclear repulsion energy       198.9495773979 Hartrees.
 NAtoms=   12 NActive=   12 NUniq=   12 SFac= 1.00D+00 NAtFMM=   60 NAOKFM=F Big=F
 Integral buffers will be    131072 words long.
 Regular integral format.
 Two-electron integral symmetry is turned on.
 One-electron integrals computed using PRISM.
 NBasis=   120 RedAO= T EigKep=  9.16D-04  NBF=   120
 NBsUse=   120 1.00D-06 EigRej= -1.00D+00 NBFU=   120
 ExpMin= 1.61D-01 ExpMax= 3.05D+03 ExpMxC= 4.57D+02 IAcc=3 IRadAn=         5 AccDes= 0.00D+00
 Harris functional with IExCor=  402 and IRadAn=       5 diagonalized for initial guess.
 HarFok:  IExCor=  402 AccDes= 0.00D+00 IRadAn=         5 IDoV= 1 UseB2=F ITyADJ=14
 ICtDFT=  3500011 ScaDFX=  1.000000  1.000000  1.000000  1.000000
 FoFCou: FMM=F IPFlag=           0 FMFlag=      100000 FMFlg1=           0
         NFxFlg=           0 DoJE=T BraDBF=F KetDBF=T FulRan=T
         wScrn=  0.000000 ICntrl=       500 IOpCl=  0 I1Cent=   200000004 NGrid=           0
         NMat0=    1 NMatS0=      1 NMatT0=    0 NMatD0=    1 NMtDS0=    0 NMtDT0=    0
 Petite list used in FoFCou.
 Keep R1 ints in memory in canonical form, NReq=30147728.
 Requested convergence on RMS density matrix=1.00D-08 within 128 cycles.
 Requested convergence on MAX density matrix=1.00D-06.
 Requested convergence on             energy=1.00D-06.
 No special actions if energy rises.
 Integral accuracy reduced to 1.0D-05 until final iterations.
 Initial convergence to 1.0D-05 achieved.  Increase integral accuracy.
 SCF Done:  E(RB3LYP) =  -232.189003469     A.U. after   14 cycles
            NFock= 14  Conv=0.38D-08     -V/T= 2.0111
 DoSCS=F DFT=T ScalE2(SS,OS)=  1.000000  1.000000
 ExpMin= 1.61D-01 ExpMax= 3.05D+03 ExpMxC= 4.57D+02 IAcc=3 IRadAn=         5 AccDes= 0.00D+00
 HarFok:  IExCor=  205 AccDes= 0.00D+00 IRadAn=         5 IDoV=-2 UseB2=F ITyADJ=14
 ICtDFT= 12500011 ScaDFX=  1.000000  1.000000  1.000000  1.000000
 Range of M.O.s used for correlation:     7   120
 NBasis=   120 NAE=    21 NBE=    21 NFC=     6 NFV=     0
 NROrb=    114 NOA=    15 NOB=    15 NVA=    99 NVB=    99
 Keep R1, R2, and R3 ints in memory in canonical form, NReq=84032236.
 Orbital symmetries:
       Occupied  (A) (A) (A) (A) (A) (A) (A) (A) (A) (A) (A) (A)
                 (A) (A) (A) (A) (A) (A) (A) (A) (A)
       Virtual   (A) (A) (A) (A) (A) (A) (A) (A) (A) (A) (A) (A)
                 (A) (A) (A) (A) (A) (A) (A) (A) (A) (A) (A) (A)
                 (A) (A) (A) (A) (A) (A) (A) (A) (A) (A) (A) (A)
                 (A) (A) (A) (A) (A) (A) (A) (A) (A) (A) (A) (A)
                 (A) (A) (A) (A) (A) (A) (A) (A) (A) (A) (A) (A)
                 (A) (A) (A) (A) (A) (A) (A) (A) (A) (A) (A) (A)
                 (A) (A) (A) (A) (A) (A) (A) (A) (A) (A) (A) (A)
                 (A) (A) (A) (A) (A) (A) (A) (A) (A) (A) (A) (A)
                 (A) (A) (A)
     4 initial guesses have been made.
 Convergence on wavefunction:    0.001000000000000
 Iteration     1 Dimension     4 NMult     0 NNew      4
 CISAX will form     4 AO SS matrices at one time.
 New state      1 was old state      2
 Iteration     2 Dimension     6 NMult     4 NNew      2
 Iteration     3 Dimension     8 NMult     6 NNew      2
 Iteration     4 Dimension    10 NMult     8 NNew      2
 Iteration     5 Dimension    12 NMult    10 NNew      2
 ***********************************************************************
 Excited states from <AA,BB:AA,BB> singles matrix:
 ***********************************************************************
 
 Ground to excited state transition densities written to RWF  633
 Ground to excited state transition electric dipole moments (Au):
       state          X           Y           Z        Dip. S.      Osc.
         1         0.0432     -0.0052      0.0047      0.0019      0.0002
 Ground to excited state transition velocity dipole moments (Au):
       state          X           Y           Z        Dip. S.      Osc.
         1        -0.0069      0.0010     -0.0008      0.0000      0.0002
 Ground to excited state transition magnetic dipole moments (Au):
       state          X           Y           Z
         1         0.0227      0.0055     -0.0518
 Ground to excited state transition velocity quadrupole moments (Au):
       state          XX          YY          ZZ          XY          XZ          YZ
         1        -0.0129      0.0016      0.0038     -0.0001     -0.0137      0.0092
 <0|del|b> * <b|rxdel|0> + <0|del|b> * <b|delr+rdel|0>
 Rotatory Strengths (R) in cgs (10**-40 erg-esu-cm/Gauss)
       state          XX          YY          ZZ    R(velocity)    E-M Angle
         1         0.1145     -0.3391     -0.1917     -0.1388      106.03
 1/2[<0|r|b>*<b|rxdel|0> + (<0|rxdel|b>*<b|r|0>)*]
 Rotatory Strengths (R) in cgs (10**-40 erg-esu-cm/Gauss)
       state          XX          YY          ZZ     R(length)
         1        -0.6948      0.0200      0.1724     -0.1674
  1/2[<0|del|b>*<b|r|0> + (<0|r|b>*<b|del|0>)*] (Au)
       state          X           Y           Z        Dip. S.   Osc.(frdel)
         1        -0.0003     -0.0000     -0.0000      0.0003      0.0002

 Excitation energies and oscillator strengths:
 
 Excited State   1:      Singlet-A      5.0683 eV  244.63 nm  f=0.0002  <S**2>=0.000
      20 -> 22         0.51848
      21 -> 23         0.48031
 This state for optimization and/or second-order correction.
 Total Energy, E(TD-HF/TD-DFT) =  -232.002747337    
 Copying the excited state density for this state as the 1-particle RhoCI density.
 SavETr:  write IOETrn=   770 NScale= 10 NData=  16 NLR=1 NState=    1 LETran=      28.

 **********************************************************************

            Population analysis using the SCF Density.

 **********************************************************************

 Orbital symmetries:
       Occupied  (A) (A) (A) (A) (A) (A) (A) (A) (A) (A) (A) (A)
                 (A) (A) (A) (A) (A) (A) (A) (A) (A)
       Virtual   (A) (A) (A) (A) (A) (A) (A) (A) (A) (A) (A) (A)
                 (A) (A) (A) (A) (A) (A) (A) (A) (A) (A) (A) (A)
                 (A) (A) (A) (A) (A) (A) (A) (A) (A) (A) (A) (A)
                 (A) (A) (A) (A) (A) (A) (A) (A) (A) (A) (A) (A)
                 (A) (A) (A) (A) (A) (A) (A) (A) (A) (A) (A) (A)
                 (A) (A) (A) (A) (A) (A) (A) (A) (A) (A) (A) (A)
                 (A) (A) (A) (A) (A) (A) (A) (A) (A) (A) (A) (A)
                 (A) (A) (A) (A) (A) (A) (A) (A) (A) (A) (A) (A)
                 (A) (A) (A)
 The electronic state is 1-A.
 Alpha  occ. eigenvalues --  -10.20822 -10.20462 -10.19809 -10.19438 -10.18853
 Alpha  occ. eigenvalues --  -10.17957  -0.82929  -0.74378  -0.72477  -0.60854
 Alpha  occ. eigenvalues --   -0.58779  -0.51669  -0.46856  -0.42699  -0.41958
 Alpha  occ. eigenvalues --   -0.40897  -0.35348  -0.34141  -0.33172  -0.24921
 Alpha  occ. eigenvalues --   -0.23252
 Alpha virt. eigenvalues --   -0.01963   0.00170   0.09054   0.12523   0.13653
 Alpha virt. eigenvalues --    0.14542   0.17469   0.18642   0.20109   0.26576
 Alpha virt. eigenvalues --    0.28700   0.30016   0.31303   0.46441   0.47866
 Alpha virt. eigenvalues --    0.52748   0.52977   0.55269   0.57395   0.58854
 Alpha virt. eigenvalues --    0.60047   0.60846   0.61047   0.61715   0.63877
 Alpha virt. eigenvalues --    0.66016   0.66687   0.73168   0.79387   0.80124
 Alpha virt. eigenvalues --    0.81207   0.85736   0.90547   0.92066   0.92944
 Alpha virt. eigenvalues --    0.94001   0.97703   1.03480   1.05817   1.07860
 Alpha virt. eigenvalues --    1.09567   1.14384   1.27497   1.28031   1.30462
 Alpha virt. eigenvalues --    1.35751   1.41823   1.42734   1.49150   1.50906
 Alpha virt. eigenvalues --    1.63584   1.70556   1.76062   1.82817   1.86512
 Alpha virt. eigenvalues --    1.88951   1.93737   1.97515   1.99268   2.00561
 Alpha virt. eigenvalues --    2.02554   2.03625   2.04839   2.20152   2.26962
 Alpha virt. eigenvalues --    2.32136   2.35891   2.36807   2.38665   2.40136
 Alpha virt. eigenvalues --    2.41939   2.44070   2.45418   2.49955   2.50221
 Alpha virt. eigenvalues --    2.52378   2.57843   2.58724   2.60771   2.67469
 Alpha virt. eigenvalues --    2.70685   2.71853   2.79639   3.00891   3.04163
 Alpha virt. eigenvalues --    3.07262   3.20269   3.24913   3.33527   3.36873
 Alpha virt. eigenvalues --    3.56504   3.79487   3.98929   4.08417   4.14661
 Alpha virt. eigenvalues --    4.17526   4.41497   4.43192   4.75821
          Condensed to atoms (all electrons):
               1          2          3          4          5          6
     1  C    4.852453   0.509012  -0.034785  -0.030385  -0.041818   0.554261
     2  C    0.509012   4.819133   0.539648  -0.030689  -0.036531  -0.032217
     3  C   -0.034785   0.539648   4.836638   0.540510  -0.038814  -0.032382
     4  C   -0.030385  -0.030689   0.540510   4.760710   0.532857  -0.029256
     5  C   -0.041818  -0.036531  -0.038814   0.532857   4.901638   0.504590
     6  C    0.554261  -0.032217  -0.032382  -0.029256   0.504590   4.822945
     7  H    0.363405  -0.035100   0.002951   0.000085   0.003377  -0.036563
     8  H   -0.043815   0.004870   0.000866   0.004046  -0.041639   0.363740
     9  H    0.003158   0.000194   0.003257  -0.033727   0.362832  -0.035255
    10  H    0.001071   0.006716  -0.050939   0.376305  -0.049849   0.005363
    11  H    0.003130  -0.037166   0.368685  -0.040665   0.004038   0.000067
    12  H   -0.047909   0.372139  -0.046802   0.005718   0.001247   0.005977
               7          8          9         10         11         12
     1  C    0.363405  -0.043815   0.003158   0.001071   0.003130  -0.047909
     2  C   -0.035100   0.004870   0.000194   0.006716  -0.037166   0.372139
     3  C    0.002951   0.000866   0.003257  -0.050939   0.368685  -0.046802
     4  C    0.000085   0.004046  -0.033727   0.376305  -0.040665   0.005718
     5  C    0.003377  -0.041639   0.362832  -0.049849   0.004038   0.001247
     6  C   -0.036563   0.363740  -0.035255   0.005363   0.000067   0.005977
     7  H    0.617497  -0.005704  -0.000099   0.000013  -0.000083  -0.004284
     8  H   -0.005704   0.639114  -0.004285  -0.000226   0.000012  -0.000281
     9  H   -0.000099  -0.004285   0.612124  -0.004036  -0.000107   0.000010
    10  H    0.000013  -0.000226  -0.004036   0.658016  -0.007905  -0.000405
    11  H   -0.000083   0.000012  -0.000107  -0.007905   0.620902  -0.004659
    12  H   -0.004284  -0.000281   0.000010  -0.000405  -0.004659   0.647282
 Mulliken charges:
               1
     1  C   -0.087778
     2  C   -0.080010
     3  C   -0.088834
     4  C   -0.055509
     5  C   -0.101929
     6  C   -0.091270
     7  H    0.094504
     8  H    0.083301
     9  H    0.095933
    10  H    0.065875
    11  H    0.093751
    12  H    0.071967
 Sum of Mulliken charges =  -0.00000
 Mulliken charges with hydrogens summed into heavy atoms:
               1
     1  C    0.006726
     2  C   -0.008043
     3  C    0.004916
     4  C    0.010366
     5  C   -0.005996
     6  C   -0.007969
 Electronic spatial extent (au):  <R**2>=            475.5782
 Charge=             -0.0000 electrons
 Dipole moment (field-independent basis, Debye):
    X=             -0.0419    Y=             -0.0728    Z=             -0.0471  Tot=              0.0963
 Quadrupole moment (field-independent basis, Debye-Ang):
   XX=            -31.0530   YY=            -31.4637   ZZ=            -38.7810
   XY=             -0.1369   XZ=             -0.6509   YZ=             -0.6640
 Traceless Quadrupole moment (field-independent basis, Debye-Ang):
   XX=              2.7129   YY=              2.3022   ZZ=             -5.0151
   XY=             -0.1369   XZ=             -0.6509   YZ=             -0.6640
 Octapole moment (field-independent basis, Debye-Ang**2):
  XXX=             -1.3398  YYY=              0.8879  ZZZ=             -0.0582  XYY=              0.9320
  XXY=             -1.6097  XXZ=              0.7384  XZZ=             -0.5744  YZZ=             -0.1581
  YYZ=             -1.2004  XYZ=              0.3192
 Hexadecapole moment (field-independent basis, Debye-Ang**3):
 XXXX=           -285.3637 YYYY=           -272.8255 ZZZZ=            -41.5743 XXXY=             -1.7330
 XXXZ=             -4.1423 YYYX=             -0.5453 YYYZ=             -4.0319 ZZZX=             -0.6308
 ZZZY=             -0.5890 XXYY=            -93.9711 XXZZ=            -63.8786 YYZZ=            -61.2618
 XXYZ=             -1.5859 YYXZ=             -1.3026 ZZXY=             -0.0927
 N-N= 1.989495773979D+02 E-N=-9.348976934743D+02  KE= 2.296480523122D+02
 1\1\GINC-DESKTOP-PRN5QE3\SP\RB3LYP TD-FC\6-31G(d,p)\C6H6\SHOHEI\10-Nov
 -2023\0\\# TD=(NStates=1) B3LYP/6-31G(d,p)\\ABSSPCT\\0,1\C,0,-0.306571
 3871,1.4401264221,0.0066451264\C,0,1.085073745,0.8992573626,-0.0611619
 915\C,0,1.3654927822,-0.5047951569,0.0330249385\C,0,0.2904998938,-1.38
 88167315,-0.0308413719\C,0,-1.0995329902,-0.9601457803,0.0047829917\C,
 0,-1.3185261898,0.505085193,0.0557319317\H,0,-0.4964260765,2.582751066
 5,-0.0268897721\H,0,-2.3382851546,0.8373415959,-0.0713040843\H,0,-1.98
 80084551,-1.6499240571,-0.2363064602\H,0,0.5040206286,-2.2974468698,0.
 0151053333\H,0,2.3925027512,-0.9114658455,0.2768178524\H,0,1.782152977
 6,1.5503420498,-0.0197582702\\Version=EM64L-G16RevB.01\State=1-A\HF=-2
 32.1890035\RMSD=3.762e-09\PG=C01 [X(C6H6)]\\@


 THE PROBLEM WITH THE LADDER OF SUCCESS IS YOU CAN'T
 CLIMB IT WHILE YOU'RE TWIDDLING YOUR THUMBS.
 Job cpu time:       0 days  0 hours  3 minutes  6.0 seconds.
 Elapsed time:       0 days  0 hours  0 minutes 47.2 seconds.
 File lengths (MBytes):  RWF=    116 Int=      0 D2E=      0 Chk=      3 Scr=      1
 Normal termination of Gaussian 16 at Fri Nov 10 17:53:52 2023.
