 Entering Gaussian System, Link 0=g16
 Input=Geometry-407-.com
 Output=Geometry-407-.log
 Initial command:
 /home/shohei/gaussian/g16/l1.exe "/home/shohei/gaussian/scratch/Gau-4833.inp" -scrdir="/home/shohei/gaussian/scratch/"
 Entering Link 1 = /home/shohei/gaussian/g16/l1.exe PID=      4835.
  
 Copyright (c) 1988-2017, Gaussian, Inc.  All Rights Reserved.
  
 This is part of the Gaussian(R) 16 program.  It is based on
 the Gaussian(R) 09 system (copyright 2009, Gaussian, Inc.),
 the Gaussian(R) 03 system (copyright 2003, Gaussian, Inc.),
 the Gaussian(R) 98 system (copyright 1998, Gaussian, Inc.),
 the Gaussian(R) 94 system (copyright 1995, Gaussian, Inc.),
 the Gaussian 92(TM) system (copyright 1992, Gaussian, Inc.),
 the Gaussian 90(TM) system (copyright 1990, Gaussian, Inc.),
 the Gaussian 88(TM) system (copyright 1988, Gaussian, Inc.),
 the Gaussian 86(TM) system (copyright 1986, Carnegie Mellon
 University), and the Gaussian 82(TM) system (copyright 1983,
 Carnegie Mellon University). Gaussian is a federally registered
 trademark of Gaussian, Inc.
  
 This software contains proprietary and confidential information,
 including trade secrets, belonging to Gaussian, Inc.
  
 This software is provided under written license and may be
 used, copied, transmitted, or stored only in accord with that
 written license.
  
 The following legend is applicable only to US Government
 contracts under FAR:
  
                    RESTRICTED RIGHTS LEGEND
  
 Use, reproduction and disclosure by the US Government is
 subject to restrictions as set forth in subparagraphs (a)
 and (c) of the Commercial Computer Software - Restricted
 Rights clause in FAR 52.227-19.
  
 Gaussian, Inc.
 340 Quinnipiac St., Bldg. 40, Wallingford CT 06492
  
  
 ---------------------------------------------------------------
 Warning -- This program may not be used in any manner that
 competes with the business of Gaussian, Inc. or will provide
 assistance to any competitor of Gaussian, Inc.  The licensee
 of this program is prohibited from giving any competitor of
 Gaussian, Inc. access to this program.  By using this program,
 the user acknowledges that Gaussian, Inc. is engaged in the
 business of creating and licensing software in the field of
 computational chemistry and represents and warrants to the
 licensee that it is not a competitor of Gaussian, Inc. and that
 it will not use this program in any manner prohibited above.
 ---------------------------------------------------------------
  

 Cite this work as:
 Gaussian 16, Revision B.01,
 M. J. Frisch, G. W. Trucks, H. B. Schlegel, G. E. Scuseria, 
 M. A. Robb, J. R. Cheeseman, G. Scalmani, V. Barone, 
 G. A. Petersson, H. Nakatsuji, X. Li, M. Caricato, A. V. Marenich, 
 J. Bloino, B. G. Janesko, R. Gomperts, B. Mennucci, H. P. Hratchian, 
 J. V. Ortiz, A. F. Izmaylov, J. L. Sonnenberg, D. Williams-Young, 
 F. Ding, F. Lipparini, F. Egidi, J. Goings, B. Peng, A. Petrone, 
 T. Henderson, D. Ranasinghe, V. G. Zakrzewski, J. Gao, N. Rega, 
 G. Zheng, W. Liang, M. Hada, M. Ehara, K. Toyota, R. Fukuda, 
 J. Hasegawa, M. Ishida, T. Nakajima, Y. Honda, O. Kitao, H. Nakai, 
 T. Vreven, K. Throssell, J. A. Montgomery, Jr., J. E. Peralta, 
 F. Ogliaro, M. J. Bearpark, J. J. Heyd, E. N. Brothers, K. N. Kudin, 
 V. N. Staroverov, T. A. Keith, R. Kobayashi, J. Normand, 
 K. Raghavachari, A. P. Rendell, J. C. Burant, S. S. Iyengar, 
 J. Tomasi, M. Cossi, J. M. Millam, M. Klene, C. Adamo, R. Cammi, 
 J. W. Ochterski, R. L. Martin, K. Morokuma, O. Farkas, 
 J. B. Foresman, and D. J. Fox, Gaussian, Inc., Wallingford CT, 2016.
 
 ******************************************
 Gaussian 16:  EM64L-G16RevB.01 20-Dec-2017
                10-Nov-2023 
 ******************************************
 %nproc=4
 Will use up to    4 processors via shared memory.
 %Mem=2Gb
 ---------------------------------
 # TD=(NStates=1) B3LYP/6-31G(d,p)
 ---------------------------------
 1/38=1,172=1/1;
 2/12=2,17=6,18=5,40=1/2;
 3/5=1,6=6,7=101,11=9,25=1,30=1,74=-5/1,2,3,8;
 4//1;
 5/5=2,38=5/2;
 8/6=1,10=2,108=1/1;
 9/41=1,42=1,70=2/14;
 6/7=2,8=2,9=2,10=2/1;
 99/5=1,9=1/99;
 -------
 ABSSPCT
 -------
 Symbolic Z-matrix:
 Charge =  0 Multiplicity = 1
 6                    -0.24636   1.34288  -0.06578 
 6                     1.08096   0.96966   0.0285 
 6                     1.31314  -0.4981    0.03971 
 6                     0.24778  -1.36575  -0.07688 
 6                    -1.05024  -0.86977   0.02724 
 6                    -1.35019   0.42782   0.04485 
 1                    -0.46216   2.4335   -0.12724 
 1                    -2.43723   0.75486   0.04349 
 1                    -1.92251  -1.61708   0.06585 
 1                     0.4471   -2.32172  -0.05584 
 1                     2.37613  -0.88951   0.07966 
 1                     2.0464    1.52616   0.05623 
 
                          Input orientation:                          
 ---------------------------------------------------------------------
 Center     Atomic      Atomic             Coordinates (Angstroms)
 Number     Number       Type             X           Y           Z
 ---------------------------------------------------------------------
      1          6           0       -0.246362    1.342883   -0.065779
      2          6           0        1.080959    0.969661    0.028499
      3          6           0        1.313138   -0.498104    0.039715
      4          6           0        0.247775   -1.365755   -0.076877
      5          6           0       -1.050239   -0.869774    0.027240
      6          6           0       -1.350192    0.427819    0.044848
      7          1           0       -0.462159    2.433505   -0.127240
      8          1           0       -2.437228    0.754856    0.043491
      9          1           0       -1.922509   -1.617075    0.065845
     10          1           0        0.447096   -2.321716   -0.055844
     11          1           0        2.376127   -0.889509    0.079659
     12          1           0        2.046403    1.526159    0.056235
 ---------------------------------------------------------------------
                    Distance matrix (angstroms):
                    1          2          3          4          5
     1  C    0.000000
     2  C    1.382015   0.000000
     3  C    2.415037   1.486057   0.000000
     4  C    2.753364   2.481827   1.378916   0.000000
     5  C    2.355997   2.815231   2.392456   1.393441   0.000000
     6  C    1.438062   2.490854   2.819696   2.405249   1.331927
     7  H    1.113464   2.132677   3.431310   3.865348   3.358773
     8  H    2.271037   3.524770   3.954133   3.423554   2.136217
     9  H    3.404137   3.964016   3.423769   2.189444   1.149263
    10  H    3.729647   3.352917   2.021069   0.976746   2.087355
    11  H    3.447053   2.266404   1.133463   2.186594   3.426824
    12  H    2.303313   1.114694   2.153042   3.408217   3.915422
                    6          7          8          9         10
     6  C    0.000000
     7  H    2.200225   0.000000
     8  H    1.135166   2.597673   0.000000
     9  H    2.123577   4.310116   2.427240   0.000000
    10  H    3.286385   4.841897   4.218352   2.475148   0.000000
    11  H    3.952469   4.375054   5.086613   4.359795   2.406395
    12  H    3.569781   2.673916   4.549508   5.062833   4.168511
                   11         12
    11  H    0.000000
    12  H    2.438179   0.000000
 Stoichiometry    C6H6
 Framework group  C1[X(C6H6)]
 Deg. of freedom    30
 Full point group                 C1      NOp   1
 Largest Abelian subgroup         C1      NOp   1
 Largest concise Abelian subgroup C1      NOp   1
                         Standard orientation:                         
 ---------------------------------------------------------------------
 Center     Atomic      Atomic             Coordinates (Angstroms)
 Number     Number       Type             X           Y           Z
 ---------------------------------------------------------------------
      1          6           0        0.044922    1.366511    0.063628
      2          6           0       -1.212522    0.800558   -0.028545
      3          6           0       -1.224715   -0.685430   -0.036200
      4          6           0       -0.042505   -1.385408    0.081360
      5          6           0        1.167652   -0.702867   -0.025115
      6          6           0        1.272062    0.624797   -0.045960
      7          1           0        0.096814    2.477211    0.122402
      8          1           0        2.298659    1.109257   -0.046375
      9          1           0        2.140978   -1.312800   -0.062843
     10          1           0       -0.098026   -2.360396    0.062691
     11          1           0       -2.218017   -1.230077   -0.074248
     12          1           0       -2.249769    1.207832   -0.056635
 ---------------------------------------------------------------------
 Rotational constants (GHZ):           5.7848389           5.5100036           2.8289851
 Standard basis: 6-31G(d,p) (6D, 7F)
 There are   120 symmetry adapted cartesian basis functions of A   symmetry.
 There are   120 symmetry adapted basis functions of A   symmetry.
   120 basis functions,   210 primitive gaussians,   120 cartesian basis functions
    21 alpha electrons       21 beta electrons
       nuclear repulsion energy       202.4889954175 Hartrees.
 NAtoms=   12 NActive=   12 NUniq=   12 SFac= 1.00D+00 NAtFMM=   60 NAOKFM=F Big=F
 Integral buffers will be    131072 words long.
 Regular integral format.
 Two-electron integral symmetry is turned on.
 One-electron integrals computed using PRISM.
 NBasis=   120 RedAO= T EigKep=  6.45D-04  NBF=   120
 NBsUse=   120 1.00D-06 EigRej= -1.00D+00 NBFU=   120
 ExpMin= 1.61D-01 ExpMax= 3.05D+03 ExpMxC= 4.57D+02 IAcc=3 IRadAn=         5 AccDes= 0.00D+00
 Harris functional with IExCor=  402 and IRadAn=       5 diagonalized for initial guess.
 HarFok:  IExCor=  402 AccDes= 0.00D+00 IRadAn=         5 IDoV= 1 UseB2=F ITyADJ=14
 ICtDFT=  3500011 ScaDFX=  1.000000  1.000000  1.000000  1.000000
 FoFCou: FMM=F IPFlag=           0 FMFlag=      100000 FMFlg1=           0
         NFxFlg=           0 DoJE=T BraDBF=F KetDBF=T FulRan=T
         wScrn=  0.000000 ICntrl=       500 IOpCl=  0 I1Cent=   200000004 NGrid=           0
         NMat0=    1 NMatS0=      1 NMatT0=    0 NMatD0=    1 NMtDS0=    0 NMtDT0=    0
 Petite list used in FoFCou.
 Keep R1 ints in memory in canonical form, NReq=30147728.
 Requested convergence on RMS density matrix=1.00D-08 within 128 cycles.
 Requested convergence on MAX density matrix=1.00D-06.
 Requested convergence on             energy=1.00D-06.
 No special actions if energy rises.
 Integral accuracy reduced to 1.0D-05 until final iterations.
 Initial convergence to 1.0D-05 achieved.  Increase integral accuracy.
 SCF Done:  E(RB3LYP) =  -232.223265938     A.U. after   14 cycles
            NFock= 14  Conv=0.19D-08     -V/T= 2.0104
 DoSCS=F DFT=T ScalE2(SS,OS)=  1.000000  1.000000
 ExpMin= 1.61D-01 ExpMax= 3.05D+03 ExpMxC= 4.57D+02 IAcc=3 IRadAn=         5 AccDes= 0.00D+00
 HarFok:  IExCor=  205 AccDes= 0.00D+00 IRadAn=         5 IDoV=-2 UseB2=F ITyADJ=14
 ICtDFT= 12500011 ScaDFX=  1.000000  1.000000  1.000000  1.000000
 Range of M.O.s used for correlation:     7   120
 NBasis=   120 NAE=    21 NBE=    21 NFC=     6 NFV=     0
 NROrb=    114 NOA=    15 NOB=    15 NVA=    99 NVB=    99
 Keep R1, R2, and R3 ints in memory in canonical form, NReq=84032236.
 Orbital symmetries:
       Occupied  (A) (A) (A) (A) (A) (A) (A) (A) (A) (A) (A) (A)
                 (A) (A) (A) (A) (A) (A) (A) (A) (A)
       Virtual   (A) (A) (A) (A) (A) (A) (A) (A) (A) (A) (A) (A)
                 (A) (A) (A) (A) (A) (A) (A) (A) (A) (A) (A) (A)
                 (A) (A) (A) (A) (A) (A) (A) (A) (A) (A) (A) (A)
                 (A) (A) (A) (A) (A) (A) (A) (A) (A) (A) (A) (A)
                 (A) (A) (A) (A) (A) (A) (A) (A) (A) (A) (A) (A)
                 (A) (A) (A) (A) (A) (A) (A) (A) (A) (A) (A) (A)
                 (A) (A) (A) (A) (A) (A) (A) (A) (A) (A) (A) (A)
                 (A) (A) (A) (A) (A) (A) (A) (A) (A) (A) (A) (A)
                 (A) (A) (A)
     4 initial guesses have been made.
 Convergence on wavefunction:    0.001000000000000
 Iteration     1 Dimension     4 NMult     0 NNew      4
 CISAX will form     4 AO SS matrices at one time.
 New state      1 was old state      2
 Iteration     2 Dimension     6 NMult     4 NNew      2
 Iteration     3 Dimension     8 NMult     6 NNew      2
 Iteration     4 Dimension    10 NMult     8 NNew      2
 Iteration     5 Dimension    12 NMult    10 NNew      2
 ***********************************************************************
 Excited states from <AA,BB:AA,BB> singles matrix:
 ***********************************************************************
 
 Ground to excited state transition densities written to RWF  633
 Ground to excited state transition electric dipole moments (Au):
       state          X           Y           Z        Dip. S.      Osc.
         1        -0.0056      0.0065      0.0010      0.0001      0.0000
 Ground to excited state transition velocity dipole moments (Au):
       state          X           Y           Z        Dip. S.      Osc.
         1         0.0009     -0.0011     -0.0004      0.0000      0.0000
 Ground to excited state transition magnetic dipole moments (Au):
       state          X           Y           Z
         1        -0.0051     -0.0210      0.0722
 Ground to excited state transition velocity quadrupole moments (Au):
       state          XX          YY          ZZ          XY          XZ          YZ
         1        -0.0070     -0.0187      0.0105     -0.0020      0.0239     -0.0017
 <0|del|b> * <b|rxdel|0> + <0|del|b> * <b|delr+rdel|0>
 Rotatory Strengths (R) in cgs (10**-40 erg-esu-cm/Gauss)
       state          XX          YY          ZZ    R(velocity)    E-M Angle
         1         0.0384     -0.0575     -0.0107     -0.0099       90.00
 1/2[<0|r|b>*<b|rxdel|0> + (<0|rxdel|b>*<b|r|0>)*]
 Rotatory Strengths (R) in cgs (10**-40 erg-esu-cm/Gauss)
       state          XX          YY          ZZ     R(length)
         1        -0.0204      0.0960     -0.0518      0.0079
  1/2[<0|del|b>*<b|r|0> + (<0|r|b>*<b|del|0>)*] (Au)
       state          X           Y           Z        Dip. S.   Osc.(frdel)
         1        -0.0000     -0.0000     -0.0000      0.0000      0.0000

 Excitation energies and oscillator strengths:
 
 Excited State   1:      Singlet-A      5.5003 eV  225.41 nm  f=0.0000  <S**2>=0.000
      20 -> 22         0.50294
      21 -> 23         0.49646
 This state for optimization and/or second-order correction.
 Total Energy, E(TD-HF/TD-DFT) =  -232.021134494    
 Copying the excited state density for this state as the 1-particle RhoCI density.
 SavETr:  write IOETrn=   770 NScale= 10 NData=  16 NLR=1 NState=    1 LETran=      28.

 **********************************************************************

            Population analysis using the SCF Density.

 **********************************************************************

 Orbital symmetries:
       Occupied  (A) (A) (A) (A) (A) (A) (A) (A) (A) (A) (A) (A)
                 (A) (A) (A) (A) (A) (A) (A) (A) (A)
       Virtual   (A) (A) (A) (A) (A) (A) (A) (A) (A) (A) (A) (A)
                 (A) (A) (A) (A) (A) (A) (A) (A) (A) (A) (A) (A)
                 (A) (A) (A) (A) (A) (A) (A) (A) (A) (A) (A) (A)
                 (A) (A) (A) (A) (A) (A) (A) (A) (A) (A) (A) (A)
                 (A) (A) (A) (A) (A) (A) (A) (A) (A) (A) (A) (A)
                 (A) (A) (A) (A) (A) (A) (A) (A) (A) (A) (A) (A)
                 (A) (A) (A) (A) (A) (A) (A) (A) (A) (A) (A) (A)
                 (A) (A) (A) (A) (A) (A) (A) (A) (A) (A) (A) (A)
                 (A) (A) (A)
 The electronic state is 1-A.
 Alpha  occ. eigenvalues --  -10.19903 -10.19690 -10.19573 -10.19218 -10.18755
 Alpha  occ. eigenvalues --  -10.17429  -0.84750  -0.74144  -0.73882  -0.60078
 Alpha  occ. eigenvalues --   -0.58888  -0.51726  -0.45425  -0.44331  -0.41623
 Alpha  occ. eigenvalues --   -0.41067  -0.36085  -0.34152  -0.32455  -0.24909
 Alpha  occ. eigenvalues --   -0.24564
 Alpha virt. eigenvalues --   -0.00140   0.00287   0.08080   0.12782   0.14495
 Alpha virt. eigenvalues --    0.15626   0.16496   0.17661   0.19964   0.26834
 Alpha virt. eigenvalues --    0.29771   0.32367   0.33198   0.45714   0.51138
 Alpha virt. eigenvalues --    0.52541   0.54570   0.56799   0.58214   0.59516
 Alpha virt. eigenvalues --    0.59576   0.60227   0.61627   0.63761   0.64159
 Alpha virt. eigenvalues --    0.66646   0.66792   0.73811   0.79404   0.79620
 Alpha virt. eigenvalues --    0.81138   0.82299   0.87230   0.91633   0.93015
 Alpha virt. eigenvalues --    0.93767   0.96633   1.05833   1.08970   1.09705
 Alpha virt. eigenvalues --    1.14377   1.19874   1.22247   1.28873   1.37256
 Alpha virt. eigenvalues --    1.39526   1.40524   1.43733   1.45177   1.48660
 Alpha virt. eigenvalues --    1.69419   1.74934   1.80696   1.82275   1.85026
 Alpha virt. eigenvalues --    1.92958   1.96166   1.97324   1.97773   1.98900
 Alpha virt. eigenvalues --    2.03247   2.05798   2.09920   2.25043   2.26693
 Alpha virt. eigenvalues --    2.29247   2.33517   2.36470   2.39024   2.40792
 Alpha virt. eigenvalues --    2.42484   2.44344   2.45437   2.47167   2.50577
 Alpha virt. eigenvalues --    2.51199   2.54110   2.59447   2.60479   2.67234
 Alpha virt. eigenvalues --    2.72445   2.76651   2.83748   2.94783   3.02603
 Alpha virt. eigenvalues --    3.11569   3.15140   3.23208   3.30145   3.32501
 Alpha virt. eigenvalues --    3.47020   3.62227   3.93313   4.12995   4.16154
 Alpha virt. eigenvalues --    4.18128   4.43182   4.45159   4.80269
          Condensed to atoms (all electrons):
               1          2          3          4          5          6
     1  C    4.845548   0.561857  -0.029853  -0.040481  -0.030637   0.509277
     2  C    0.561857   4.848151   0.482350  -0.036968  -0.044551  -0.031299
     3  C   -0.029853   0.482350   4.887225   0.571626  -0.021066  -0.043775
     4  C   -0.040481  -0.036968   0.571626   4.740994   0.533272  -0.042629
     5  C   -0.030637  -0.044551  -0.021066   0.533272   4.805257   0.566707
     6  C    0.509277  -0.031299  -0.043775  -0.042629   0.566707   4.814676
     7  H    0.360918  -0.046487   0.005006   0.000796   0.005393  -0.040437
     8  H   -0.037349   0.003266   0.000234   0.004843  -0.038746   0.368578
     9  H    0.005601   0.000581   0.005056  -0.041920   0.357536  -0.042955
    10  H    0.000160   0.006762  -0.054762   0.383081  -0.049919   0.007367
    11  H    0.004117  -0.038532   0.357378  -0.037644   0.004726   0.000713
    12  H   -0.033737   0.368456  -0.043849   0.004174   0.000406   0.002859
               7          8          9         10         11         12
     1  C    0.360918  -0.037349   0.005601   0.000160   0.004117  -0.033737
     2  C   -0.046487   0.003266   0.000581   0.006762  -0.038532   0.368456
     3  C    0.005006   0.000234   0.005056  -0.054762   0.357378  -0.043849
     4  C    0.000796   0.004843  -0.041920   0.383081  -0.037644   0.004174
     5  C    0.005393  -0.038746   0.357536  -0.049919   0.004726   0.000406
     6  C   -0.040437   0.368578  -0.042955   0.007367   0.000713   0.002859
     7  H    0.644455  -0.004939  -0.000216   0.000016  -0.000175  -0.004815
     8  H   -0.004939   0.620109  -0.008384  -0.000204   0.000011  -0.000072
     9  H   -0.000216  -0.008384   0.657372  -0.007528  -0.000166   0.000013
    10  H    0.000016  -0.000204  -0.007528   0.650032  -0.007691  -0.000257
    11  H   -0.000175   0.000011  -0.000166  -0.007691   0.639532  -0.004394
    12  H   -0.004815  -0.000072   0.000013  -0.000257  -0.004394   0.613240
 Mulliken charges:
               1
     1  C   -0.115423
     2  C   -0.073586
     3  C   -0.115571
     4  C   -0.039145
     5  C   -0.088378
     6  C   -0.069083
     7  H    0.080484
     8  H    0.092652
     9  H    0.075009
    10  H    0.072943
    11  H    0.082124
    12  H    0.097974
 Sum of Mulliken charges =  -0.00000
 Mulliken charges with hydrogens summed into heavy atoms:
               1
     1  C   -0.034939
     2  C    0.024388
     3  C   -0.033447
     4  C    0.033798
     5  C   -0.013370
     6  C    0.023569
 Electronic spatial extent (au):  <R**2>=            461.5675
 Charge=             -0.0000 electrons
 Dipole moment (field-independent basis, Debye):
    X=             -0.0607    Y=             -0.1037    Z=             -0.0218  Tot=              0.1221
 Quadrupole moment (field-independent basis, Debye-Ang):
   XX=            -30.9456   YY=            -32.2443   ZZ=            -38.6363
   XY=              0.2291   XZ=              0.0779   YZ=              0.1332
 Traceless Quadrupole moment (field-independent basis, Debye-Ang):
   XX=              2.9965   YY=              1.6977   ZZ=             -4.6942
   XY=              0.2291   XZ=              0.0779   YZ=              0.1332
 Octapole moment (field-independent basis, Debye-Ang**2):
  XXX=             -1.0739  YYY=             -1.9217  ZZZ=              0.0198  XYY=              0.0267
  XXY=              0.6868  XXZ=             -0.6844  XZZ=              0.1887  YZZ=             -0.4281
  YYZ=              0.3982  XYZ=              0.0452
 Hexadecapole moment (field-independent basis, Debye-Ang**3):
 XXXX=           -275.1144 YYYY=           -270.1912 ZZZZ=            -40.7158 XXXY=              0.7245
 XXXZ=              0.4410 YYYX=              1.6454 YYYZ=              0.8141 ZZZX=              0.0940
 ZZZY=              0.0442 XXYY=            -92.1883 XXZZ=            -63.0706 YYZZ=            -59.4075
 XXYZ=              0.1261 YYXZ=              0.1121 ZZXY=              0.0385
 N-N= 2.024889954175D+02 E-N=-9.421896678532D+02  KE= 2.298321930797D+02
 1\1\GINC-DESKTOP-PRN5QE3\SP\RB3LYP TD-FC\6-31G(d,p)\C6H6\SHOHEI\10-Nov
 -2023\0\\# TD=(NStates=1) B3LYP/6-31G(d,p)\\ABSSPCT\\0,1\C,0,-0.246361
 6483,1.3428832349,-0.0657791879\C,0,1.080959256,0.9696605146,0.0284985
 032\C,0,1.313137927,-0.4981043491,0.0397148144\C,0,0.247775177,-1.3657
 546763,-0.0768774689\C,0,-1.0502391445,-0.8697738704,0.0272403911\C,0,
 -1.3501916929,0.4278190163,0.0448478986\H,0,-0.4621594198,2.4335049671
 ,-0.1272404524\H,0,-2.4372279553,0.7548561453,0.0434906772\H,0,-1.9225
 092332,-1.6170752178,0.0658450821\H,0,0.4470964278,-2.3217157873,-0.05
 58441079\H,0,2.3761266644,-0.8895090749,0.079658742\H,0,2.0464034623,1
 .5261586603,0.0562346168\\Version=EM64L-G16RevB.01\State=1-A\HF=-232.2
 232659\RMSD=1.948e-09\PG=C01 [X(C6H6)]\\@


 I think that all right-thinking people in this
 country are sick and tired of being told that
 ordinary, decent people are fed up in this country
 with being sick and tired.  I'm certainly not!
 But I'm sick and tired of being told that I am!
                               -- Monty Python
 Job cpu time:       0 days  0 hours  3 minutes 13.9 seconds.
 Elapsed time:       0 days  0 hours  0 minutes 49.1 seconds.
 File lengths (MBytes):  RWF=    116 Int=      0 D2E=      0 Chk=      3 Scr=      1
 Normal termination of Gaussian 16 at Fri Nov 10 18:18:20 2023.
