 Entering Gaussian System, Link 0=g16
 Input=Geometry-456-.com
 Output=Geometry-456-.log
 Initial command:
 /home/shohei/gaussian/g16/l1.exe "/home/shohei/gaussian/scratch/Gau-8973.inp" -scrdir="/home/shohei/gaussian/scratch/"
 Entering Link 1 = /home/shohei/gaussian/g16/l1.exe PID=      8975.
  
 Copyright (c) 1988-2017, Gaussian, Inc.  All Rights Reserved.
  
 This is part of the Gaussian(R) 16 program.  It is based on
 the Gaussian(R) 09 system (copyright 2009, Gaussian, Inc.),
 the Gaussian(R) 03 system (copyright 2003, Gaussian, Inc.),
 the Gaussian(R) 98 system (copyright 1998, Gaussian, Inc.),
 the Gaussian(R) 94 system (copyright 1995, Gaussian, Inc.),
 the Gaussian 92(TM) system (copyright 1992, Gaussian, Inc.),
 the Gaussian 90(TM) system (copyright 1990, Gaussian, Inc.),
 the Gaussian 88(TM) system (copyright 1988, Gaussian, Inc.),
 the Gaussian 86(TM) system (copyright 1986, Carnegie Mellon
 University), and the Gaussian 82(TM) system (copyright 1983,
 Carnegie Mellon University). Gaussian is a federally registered
 trademark of Gaussian, Inc.
  
 This software contains proprietary and confidential information,
 including trade secrets, belonging to Gaussian, Inc.
  
 This software is provided under written license and may be
 used, copied, transmitted, or stored only in accord with that
 written license.
  
 The following legend is applicable only to US Government
 contracts under FAR:
  
                    RESTRICTED RIGHTS LEGEND
  
 Use, reproduction and disclosure by the US Government is
 subject to restrictions as set forth in subparagraphs (a)
 and (c) of the Commercial Computer Software - Restricted
 Rights clause in FAR 52.227-19.
  
 Gaussian, Inc.
 340 Quinnipiac St., Bldg. 40, Wallingford CT 06492
  
  
 ---------------------------------------------------------------
 Warning -- This program may not be used in any manner that
 competes with the business of Gaussian, Inc. or will provide
 assistance to any competitor of Gaussian, Inc.  The licensee
 of this program is prohibited from giving any competitor of
 Gaussian, Inc. access to this program.  By using this program,
 the user acknowledges that Gaussian, Inc. is engaged in the
 business of creating and licensing software in the field of
 computational chemistry and represents and warrants to the
 licensee that it is not a competitor of Gaussian, Inc. and that
 it will not use this program in any manner prohibited above.
 ---------------------------------------------------------------
  

 Cite this work as:
 Gaussian 16, Revision B.01,
 M. J. Frisch, G. W. Trucks, H. B. Schlegel, G. E. Scuseria, 
 M. A. Robb, J. R. Cheeseman, G. Scalmani, V. Barone, 
 G. A. Petersson, H. Nakatsuji, X. Li, M. Caricato, A. V. Marenich, 
 J. Bloino, B. G. Janesko, R. Gomperts, B. Mennucci, H. P. Hratchian, 
 J. V. Ortiz, A. F. Izmaylov, J. L. Sonnenberg, D. Williams-Young, 
 F. Ding, F. Lipparini, F. Egidi, J. Goings, B. Peng, A. Petrone, 
 T. Henderson, D. Ranasinghe, V. G. Zakrzewski, J. Gao, N. Rega, 
 G. Zheng, W. Liang, M. Hada, M. Ehara, K. Toyota, R. Fukuda, 
 J. Hasegawa, M. Ishida, T. Nakajima, Y. Honda, O. Kitao, H. Nakai, 
 T. Vreven, K. Throssell, J. A. Montgomery, Jr., J. E. Peralta, 
 F. Ogliaro, M. J. Bearpark, J. J. Heyd, E. N. Brothers, K. N. Kudin, 
 V. N. Staroverov, T. A. Keith, R. Kobayashi, J. Normand, 
 K. Raghavachari, A. P. Rendell, J. C. Burant, S. S. Iyengar, 
 J. Tomasi, M. Cossi, J. M. Millam, M. Klene, C. Adamo, R. Cammi, 
 J. W. Ochterski, R. L. Martin, K. Morokuma, O. Farkas, 
 J. B. Foresman, and D. J. Fox, Gaussian, Inc., Wallingford CT, 2016.
 
 ******************************************
 Gaussian 16:  EM64L-G16RevB.01 20-Dec-2017
                10-Nov-2023 
 ******************************************
 %nproc=4
 Will use up to    4 processors via shared memory.
 %Mem=2Gb
 ---------------------------------
 # TD=(NStates=1) B3LYP/6-31G(d,p)
 ---------------------------------
 1/38=1,172=1/1;
 2/12=2,17=6,18=5,40=1/2;
 3/5=1,6=6,7=101,11=9,25=1,30=1,74=-5/1,2,3,8;
 4//1;
 5/5=2,38=5/2;
 8/6=1,10=2,108=1/1;
 9/41=1,42=1,70=2/14;
 6/7=2,8=2,9=2,10=2/1;
 99/5=1,9=1/99;
 -------
 ABSSPCT
 -------
 Symbolic Z-matrix:
 Charge =  0 Multiplicity = 1
 6                    -0.26541   1.3502   -0.01269 
 6                     1.06323   0.95146  -0.02786 
 6                     1.29521  -0.48429  -0.03102 
 6                     0.25907  -1.39499   0.01203 
 6                    -1.01873  -0.91687   0.06833 
 6                    -1.33434   0.50706   0.00868 
 1                    -0.4732    2.34409   0.05126 
 1                    -2.34343   0.84222  -0.19754 
 1                    -1.94208  -1.53611  -0.33831 
 1                     0.44583  -2.5775   -0.08491 
 1                     2.33836  -0.60918   0.02228 
 1                     1.95879   1.38102   0.29676 
 
                          Input orientation:                          
 ---------------------------------------------------------------------
 Center     Atomic      Atomic             Coordinates (Angstroms)
 Number     Number       Type             X           Y           Z
 ---------------------------------------------------------------------
      1          6           0       -0.265408    1.350204   -0.012692
      2          6           0        1.063226    0.951458   -0.027857
      3          6           0        1.295211   -0.484293   -0.031021
      4          6           0        0.259068   -1.394992    0.012031
      5          6           0       -1.018730   -0.916869    0.068327
      6          6           0       -1.334335    0.507062    0.008683
      7          1           0       -0.473201    2.344092    0.051259
      8          1           0       -2.343430    0.842217   -0.197536
      9          1           0       -1.942075   -1.536112   -0.338311
     10          1           0        0.445830   -2.577504   -0.084914
     11          1           0        2.338364   -0.609184    0.022279
     12          1           0        1.958786    1.381018    0.296758
 ---------------------------------------------------------------------
                    Distance matrix (angstroms):
                    1          2          3          4          5
     1  C    0.000000
     2  C    1.387262   0.000000
     3  C    2.408578   1.454375   0.000000
     4  C    2.794958   2.480743   1.380152   0.000000
     5  C    2.390330   2.799006   2.356123   1.365481   0.000000
     6  C    1.361598   2.438672   2.810494   2.481281   1.459706
     7  H    1.017389   2.075162   3.336737   3.810316   3.306321
     8  H    2.147182   3.412627   3.876476   3.438316   2.218083
     9  H    3.353813   3.913594   3.417715   2.233312   1.183800
    10  H    3.992238   3.583015   2.259620   1.201088   2.219488
    11  H    3.258843   2.015960   1.051953   2.222852   3.371479
    12  H    2.245829   1.044952   2.006777   3.267467   3.768032
                    6          7          8          9         10
     6  C    0.000000
     7  H    2.029296   0.000000
     8  H    1.083110   2.411489   0.000000
     9  H    2.159703   4.167174   2.416061   0.000000
    10  H    3.562625   5.008519   4.414424   2.617403   0.000000
    11  H    3.838608   4.077693   4.906534   4.394471   2.732665
    12  H    3.419273   2.627231   4.363908   4.912197   4.254950
                   11         12
    11  H    0.000000
    12  H    2.044584   0.000000
 Stoichiometry    C6H6
 Framework group  C1[X(C6H6)]
 Deg. of freedom    30
 Full point group                 C1      NOp   1
 Largest Abelian subgroup         C1      NOp   1
 Largest concise Abelian subgroup C1      NOp   1
                         Standard orientation:                         
 ---------------------------------------------------------------------
 Center     Atomic      Atomic             Coordinates (Angstroms)
 Number     Number       Type             X           Y           Z
 ---------------------------------------------------------------------
      1          6           0       -1.117177   -0.806275    0.017122
      2          6           0        0.125400   -1.422278    0.049379
      3          6           0        1.275617   -0.532237    0.043388
      4          6           0        1.141321    0.839719   -0.023842
      5          6           0       -0.118141    1.362335   -0.095728
      6          6           0       -1.321679    0.539111   -0.028344
      7          1           0       -1.947551   -1.391216   -0.041215
      8          1           0       -2.288632    0.987095    0.165147
      9          1           0       -0.371540    2.452111    0.291001
     10          1           0        2.085020    1.577327    0.065481
     11          1           0        2.122995   -1.154408    0.005190
     12          1           0        0.487658   -2.353162   -0.257458
 ---------------------------------------------------------------------
 Rotational constants (GHZ):           5.7301084           5.5854970           2.8390861
 Standard basis: 6-31G(d,p) (6D, 7F)
 There are   120 symmetry adapted cartesian basis functions of A   symmetry.
 There are   120 symmetry adapted basis functions of A   symmetry.
   120 basis functions,   210 primitive gaussians,   120 cartesian basis functions
    21 alpha electrons       21 beta electrons
       nuclear repulsion energy       202.8496424382 Hartrees.
 NAtoms=   12 NActive=   12 NUniq=   12 SFac= 1.00D+00 NAtFMM=   60 NAOKFM=F Big=F
 Integral buffers will be    131072 words long.
 Regular integral format.
 Two-electron integral symmetry is turned on.
 One-electron integrals computed using PRISM.
 NBasis=   120 RedAO= T EigKep=  8.11D-04  NBF=   120
 NBsUse=   120 1.00D-06 EigRej= -1.00D+00 NBFU=   120
 ExpMin= 1.61D-01 ExpMax= 3.05D+03 ExpMxC= 4.57D+02 IAcc=3 IRadAn=         5 AccDes= 0.00D+00
 Harris functional with IExCor=  402 and IRadAn=       5 diagonalized for initial guess.
 HarFok:  IExCor=  402 AccDes= 0.00D+00 IRadAn=         5 IDoV= 1 UseB2=F ITyADJ=14
 ICtDFT=  3500011 ScaDFX=  1.000000  1.000000  1.000000  1.000000
 FoFCou: FMM=F IPFlag=           0 FMFlag=      100000 FMFlg1=           0
         NFxFlg=           0 DoJE=T BraDBF=F KetDBF=T FulRan=T
         wScrn=  0.000000 ICntrl=       500 IOpCl=  0 I1Cent=   200000004 NGrid=           0
         NMat0=    1 NMatS0=      1 NMatT0=    0 NMatD0=    1 NMtDS0=    0 NMtDT0=    0
 Petite list used in FoFCou.
 Keep R1 ints in memory in canonical form, NReq=30147728.
 Requested convergence on RMS density matrix=1.00D-08 within 128 cycles.
 Requested convergence on MAX density matrix=1.00D-06.
 Requested convergence on             energy=1.00D-06.
 No special actions if energy rises.
 Integral accuracy reduced to 1.0D-05 until final iterations.
 Initial convergence to 1.0D-05 achieved.  Increase integral accuracy.
 SCF Done:  E(RB3LYP) =  -232.200681579     A.U. after   13 cycles
            NFock= 13  Conv=0.40D-08     -V/T= 2.0100
 DoSCS=F DFT=T ScalE2(SS,OS)=  1.000000  1.000000
 ExpMin= 1.61D-01 ExpMax= 3.05D+03 ExpMxC= 4.57D+02 IAcc=3 IRadAn=         5 AccDes= 0.00D+00
 HarFok:  IExCor=  205 AccDes= 0.00D+00 IRadAn=         5 IDoV=-2 UseB2=F ITyADJ=14
 ICtDFT= 12500011 ScaDFX=  1.000000  1.000000  1.000000  1.000000
 Range of M.O.s used for correlation:     7   120
 NBasis=   120 NAE=    21 NBE=    21 NFC=     6 NFV=     0
 NROrb=    114 NOA=    15 NOB=    15 NVA=    99 NVB=    99
 Keep R1, R2, and R3 ints in memory in canonical form, NReq=84032236.
 Orbital symmetries:
       Occupied  (A) (A) (A) (A) (A) (A) (A) (A) (A) (A) (A) (A)
                 (A) (A) (A) (A) (A) (A) (A) (A) (A)
       Virtual   (A) (A) (A) (A) (A) (A) (A) (A) (A) (A) (A) (A)
                 (A) (A) (A) (A) (A) (A) (A) (A) (A) (A) (A) (A)
                 (A) (A) (A) (A) (A) (A) (A) (A) (A) (A) (A) (A)
                 (A) (A) (A) (A) (A) (A) (A) (A) (A) (A) (A) (A)
                 (A) (A) (A) (A) (A) (A) (A) (A) (A) (A) (A) (A)
                 (A) (A) (A) (A) (A) (A) (A) (A) (A) (A) (A) (A)
                 (A) (A) (A) (A) (A) (A) (A) (A) (A) (A) (A) (A)
                 (A) (A) (A) (A) (A) (A) (A) (A) (A) (A) (A) (A)
                 (A) (A) (A)
     4 initial guesses have been made.
 Convergence on wavefunction:    0.001000000000000
 Iteration     1 Dimension     4 NMult     0 NNew      4
 CISAX will form     4 AO SS matrices at one time.
 New state      1 was old state      2
 Iteration     2 Dimension     6 NMult     4 NNew      2
 Iteration     3 Dimension     8 NMult     6 NNew      2
 Iteration     4 Dimension    10 NMult     8 NNew      2
 Iteration     5 Dimension    12 NMult    10 NNew      2
 Iteration     6 Dimension    14 NMult    12 NNew      2
 ***********************************************************************
 Excited states from <AA,BB:AA,BB> singles matrix:
 ***********************************************************************
 
 Ground to excited state transition densities written to RWF  633
 Ground to excited state transition electric dipole moments (Au):
       state          X           Y           Z        Dip. S.      Osc.
         1        -0.1037     -0.0354      0.0146      0.0122      0.0016
 Ground to excited state transition velocity dipole moments (Au):
       state          X           Y           Z        Dip. S.      Osc.
         1         0.0184      0.0069     -0.0022      0.0004      0.0013
 Ground to excited state transition magnetic dipole moments (Au):
       state          X           Y           Z
         1         0.0121     -0.0088     -0.0478
 Ground to excited state transition velocity quadrupole moments (Au):
       state          XX          YY          ZZ          XY          XZ          YZ
         1        -0.0005     -0.0051      0.0018      0.0036      0.0023      0.0072
 <0|del|b> * <b|rxdel|0> + <0|del|b> * <b|delr+rdel|0>
 Rotatory Strengths (R) in cgs (10**-40 erg-esu-cm/Gauss)
       state          XX          YY          ZZ    R(velocity)    E-M Angle
         1         0.0373      0.8574      0.0831      0.3259       74.31
 1/2[<0|r|b>*<b|rxdel|0> + (<0|rxdel|b>*<b|r|0>)*]
 Rotatory Strengths (R) in cgs (10**-40 erg-esu-cm/Gauss)
       state          XX          YY          ZZ     R(length)
         1         0.8905     -0.2199      0.4938      0.3881
  1/2[<0|del|b>*<b|r|0> + (<0|r|b>*<b|del|0>)*] (Au)
       state          X           Y           Z        Dip. S.   Osc.(frdel)
         1        -0.0019     -0.0002     -0.0000      0.0022      0.0015

 Excitation energies and oscillator strengths:
 
 Excited State   1:      Singlet-A      5.2720 eV  235.18 nm  f=0.0016  <S**2>=0.000
      20 -> 22         0.50956
      21 -> 22        -0.12280
      21 -> 23         0.47014
 This state for optimization and/or second-order correction.
 Total Energy, E(TD-HF/TD-DFT) =  -232.006940713    
 Copying the excited state density for this state as the 1-particle RhoCI density.
 SavETr:  write IOETrn=   770 NScale= 10 NData=  16 NLR=1 NState=    1 LETran=      28.

 **********************************************************************

            Population analysis using the SCF Density.

 **********************************************************************

 Orbital symmetries:
       Occupied  (A) (A) (A) (A) (A) (A) (A) (A) (A) (A) (A) (A)
                 (A) (A) (A) (A) (A) (A) (A) (A) (A)
       Virtual   (A) (A) (A) (A) (A) (A) (A) (A) (A) (A) (A) (A)
                 (A) (A) (A) (A) (A) (A) (A) (A) (A) (A) (A) (A)
                 (A) (A) (A) (A) (A) (A) (A) (A) (A) (A) (A) (A)
                 (A) (A) (A) (A) (A) (A) (A) (A) (A) (A) (A) (A)
                 (A) (A) (A) (A) (A) (A) (A) (A) (A) (A) (A) (A)
                 (A) (A) (A) (A) (A) (A) (A) (A) (A) (A) (A) (A)
                 (A) (A) (A) (A) (A) (A) (A) (A) (A) (A) (A) (A)
                 (A) (A) (A) (A) (A) (A) (A) (A) (A) (A) (A) (A)
                 (A) (A) (A)
 The electronic state is 1-A.
 Alpha  occ. eigenvalues --  -10.20084 -10.19970 -10.19129 -10.18818 -10.18680
 Alpha  occ. eigenvalues --  -10.17973  -0.84820  -0.74919  -0.73672  -0.60170
 Alpha  occ. eigenvalues --   -0.59704  -0.51522  -0.45673  -0.45050  -0.41892
 Alpha  occ. eigenvalues --   -0.40405  -0.35778  -0.34761  -0.31510  -0.25571
 Alpha  occ. eigenvalues --   -0.23805
 Alpha virt. eigenvalues --   -0.01872   0.00544   0.07850   0.13065   0.13864
 Alpha virt. eigenvalues --    0.14204   0.16895   0.19215   0.20717   0.26968
 Alpha virt. eigenvalues --    0.28506   0.31724   0.34864   0.45528   0.50427
 Alpha virt. eigenvalues --    0.52462   0.55581   0.56846   0.58031   0.59053
 Alpha virt. eigenvalues --    0.59646   0.61609   0.62288   0.64013   0.65248
 Alpha virt. eigenvalues --    0.66528   0.67172   0.73240   0.77766   0.79443
 Alpha virt. eigenvalues --    0.83040   0.83440   0.86239   0.92211   0.93148
 Alpha virt. eigenvalues --    0.93637   0.95445   0.98894   1.05577   1.08490
 Alpha virt. eigenvalues --    1.12673   1.13667   1.18045   1.26476   1.30366
 Alpha virt. eigenvalues --    1.37955   1.41934   1.44882   1.53179   1.58894
 Alpha virt. eigenvalues --    1.67263   1.73580   1.74689   1.79098   1.86428
 Alpha virt. eigenvalues --    1.89766   1.95777   1.98680   2.01778   2.03163
 Alpha virt. eigenvalues --    2.05399   2.07790   2.09607   2.16789   2.27275
 Alpha virt. eigenvalues --    2.28871   2.29802   2.33162   2.35406   2.39143
 Alpha virt. eigenvalues --    2.43786   2.45102   2.48184   2.49008   2.52633
 Alpha virt. eigenvalues --    2.55826   2.59760   2.60493   2.63516   2.68232
 Alpha virt. eigenvalues --    2.73943   2.77363   2.81564   2.88516   3.04429
 Alpha virt. eigenvalues --    3.07754   3.19267   3.21893   3.29767   3.40155
 Alpha virt. eigenvalues --    3.57495   3.60802   3.88235   4.13543   4.17004
 Alpha virt. eigenvalues --    4.18307   4.44477   4.45304   4.82089
          Condensed to atoms (all electrons):
               1          2          3          4          5          6
     1  C    4.760932   0.542938  -0.035226  -0.035388  -0.032841   0.571080
     2  C    0.542938   4.865076   0.519043  -0.041642  -0.043771  -0.038864
     3  C   -0.035226   0.519043   4.836776   0.555998  -0.032599  -0.036435
     4  C   -0.035388  -0.041642   0.555998   4.796399   0.545649  -0.049640
     5  C   -0.032841  -0.043771  -0.032599   0.545649   4.878539   0.506686
     6  C    0.571080  -0.038864  -0.036435  -0.049640   0.506686   4.840425
     7  H    0.370605  -0.052467   0.006466   0.000953   0.007258  -0.053471
     8  H   -0.041021   0.004688   0.000208   0.004095  -0.038251   0.375673
     9  H    0.004619   0.001097   0.003448  -0.033439   0.349337  -0.041167
    10  H    0.000028   0.004058  -0.039953   0.357723  -0.039192   0.003840
    11  H    0.007197  -0.051592   0.365949  -0.041577   0.005149   0.000969
    12  H   -0.036318   0.374127  -0.047223   0.005984   0.000530   0.003584
               7          8          9         10         11         12
     1  C    0.370605  -0.041021   0.004619   0.000028   0.007197  -0.036318
     2  C   -0.052467   0.004688   0.001097   0.004058  -0.051592   0.374127
     3  C    0.006466   0.000208   0.003448  -0.039953   0.365949  -0.047223
     4  C    0.000953   0.004095  -0.033439   0.357723  -0.041577   0.005984
     5  C    0.007258  -0.038251   0.349337  -0.039192   0.005149   0.000530
     6  C   -0.053471   0.375673  -0.041167   0.003840   0.000969   0.003584
     7  H    0.658887  -0.007840  -0.000308   0.000020  -0.000388  -0.004575
     8  H   -0.007840   0.612456  -0.005030  -0.000118   0.000014  -0.000125
     9  H   -0.000308  -0.005030   0.648647  -0.005891  -0.000150   0.000015
    10  H    0.000020  -0.000118  -0.005891   0.641864  -0.004531  -0.000199
    11  H   -0.000388   0.000014  -0.000150  -0.004531   0.647694  -0.011447
    12  H   -0.004575  -0.000125   0.000015  -0.000199  -0.011447   0.619606
 Mulliken charges:
               1
     1  C   -0.076604
     2  C   -0.082693
     3  C   -0.096452
     4  C   -0.065114
     5  C   -0.106493
     6  C   -0.082681
     7  H    0.074861
     8  H    0.095251
     9  H    0.078821
    10  H    0.082352
    11  H    0.082713
    12  H    0.096039
 Sum of Mulliken charges =  -0.00000
 Mulliken charges with hydrogens summed into heavy atoms:
               1
     1  C   -0.001743
     2  C    0.013346
     3  C   -0.013739
     4  C    0.017238
     5  C   -0.027672
     6  C    0.012571
 Electronic spatial extent (au):  <R**2>=            459.6173
 Charge=             -0.0000 electrons
 Dipole moment (field-independent basis, Debye):
    X=             -0.0443    Y=             -0.1869    Z=              0.1023  Tot=              0.2176
 Quadrupole moment (field-independent basis, Debye-Ang):
   XX=            -31.7627   YY=            -32.2466   ZZ=            -38.3702
   XY=             -0.8949   XZ=             -0.4190   YZ=              1.3922
 Traceless Quadrupole moment (field-independent basis, Debye-Ang):
   XX=              2.3638   YY=              1.8799   ZZ=             -4.2437
   XY=             -0.8949   XZ=             -0.4190   YZ=              1.3922
 Octapole moment (field-independent basis, Debye-Ang**2):
  XXX=             -2.4560  YYY=             -2.4831  ZZZ=              0.0400  XYY=              1.6282
  XXY=              0.1604  XXZ=              0.8373  XZZ=             -0.3232  YZZ=             -0.5302
  YYZ=              0.3210  XYZ=             -0.1761
 Hexadecapole moment (field-independent basis, Debye-Ang**3):
 XXXX=           -278.0567 YYYY=           -281.0966 ZZZZ=            -41.2691 XXXY=             -1.7746
 XXXZ=             -1.5741 YYYX=             -5.4085 YYYZ=              8.6359 ZZZX=             -0.4373
 ZZZY=              1.4336 XXYY=            -88.5724 XXZZ=            -60.8158 YYZZ=            -59.9896
 XXYZ=              2.1116 YYXZ=             -1.4751 ZZXY=             -0.4400
 N-N= 2.028496424382D+02 E-N=-9.429117964830D+02  KE= 2.299116380045D+02
 1\1\GINC-DESKTOP-PRN5QE3\SP\RB3LYP TD-FC\6-31G(d,p)\C6H6\SHOHEI\10-Nov
 -2023\0\\# TD=(NStates=1) B3LYP/6-31G(d,p)\\ABSSPCT\\0,1\C,0,-0.265408
 41,1.3502038798,-0.0126917846\C,0,1.0632256133,0.9514575074,-0.0278569
 953\C,0,1.2952113029,-0.4842933884,-0.0310211708\C,0,0.2590676897,-1.3
 949923859,0.0120310379\C,0,-1.0187304239,-0.9168686328,0.0683267123\C,
 0,-1.3343352236,0.5070620587,0.0086834992\H,0,-0.4732013782,2.34409171
 64,0.0512589469\H,0,-2.3434298279,0.8422167983,-0.1975356773\H,0,-1.94
 20752158,-1.5361124099,-0.3383108576\H,0,0.4458298096,-2.5775036571,-0
 .0849141341\H,0,2.3383637395,-0.6091844307,0.0222785604\H,0,1.95878570
 04,1.3810176084,0.2967580808\\Version=EM64L-G16RevB.01\State=1-A\HF=-2
 32.2006816\RMSD=3.957e-09\PG=C01 [X(C6H6)]\\@


 Until you make peace with who you are,
 you'll never be content with what you have.
                           -- Doris Mortman
 Job cpu time:       0 days  0 hours  3 minutes 40.8 seconds.
 Elapsed time:       0 days  0 hours  0 minutes 55.8 seconds.
 File lengths (MBytes):  RWF=    116 Int=      0 D2E=      0 Chk=      3 Scr=      1
 Normal termination of Gaussian 16 at Fri Nov 10 18:59:14 2023.
