 Entering Gaussian System, Link 0=g16
 Input=Geometry-96-.com
 Output=Geometry-96-.log
 Initial command:
 /home/shohei/gaussian/g16/l1.exe "/home/shohei/gaussian/scratch/Gau-31974.inp" -scrdir="/home/shohei/gaussian/scratch/"
 Entering Link 1 = /home/shohei/gaussian/g16/l1.exe PID=     31976.
  
 Copyright (c) 1988-2017, Gaussian, Inc.  All Rights Reserved.
  
 This is part of the Gaussian(R) 16 program.  It is based on
 the Gaussian(R) 09 system (copyright 2009, Gaussian, Inc.),
 the Gaussian(R) 03 system (copyright 2003, Gaussian, Inc.),
 the Gaussian(R) 98 system (copyright 1998, Gaussian, Inc.),
 the Gaussian(R) 94 system (copyright 1995, Gaussian, Inc.),
 the Gaussian 92(TM) system (copyright 1992, Gaussian, Inc.),
 the Gaussian 90(TM) system (copyright 1990, Gaussian, Inc.),
 the Gaussian 88(TM) system (copyright 1988, Gaussian, Inc.),
 the Gaussian 86(TM) system (copyright 1986, Carnegie Mellon
 University), and the Gaussian 82(TM) system (copyright 1983,
 Carnegie Mellon University). Gaussian is a federally registered
 trademark of Gaussian, Inc.
  
 This software contains proprietary and confidential information,
 including trade secrets, belonging to Gaussian, Inc.
  
 This software is provided under written license and may be
 used, copied, transmitted, or stored only in accord with that
 written license.
  
 The following legend is applicable only to US Government
 contracts under FAR:
  
                    RESTRICTED RIGHTS LEGEND
  
 Use, reproduction and disclosure by the US Government is
 subject to restrictions as set forth in subparagraphs (a)
 and (c) of the Commercial Computer Software - Restricted
 Rights clause in FAR 52.227-19.
  
 Gaussian, Inc.
 340 Quinnipiac St., Bldg. 40, Wallingford CT 06492
  
  
 ---------------------------------------------------------------
 Warning -- This program may not be used in any manner that
 competes with the business of Gaussian, Inc. or will provide
 assistance to any competitor of Gaussian, Inc.  The licensee
 of this program is prohibited from giving any competitor of
 Gaussian, Inc. access to this program.  By using this program,
 the user acknowledges that Gaussian, Inc. is engaged in the
 business of creating and licensing software in the field of
 computational chemistry and represents and warrants to the
 licensee that it is not a competitor of Gaussian, Inc. and that
 it will not use this program in any manner prohibited above.
 ---------------------------------------------------------------
  

 Cite this work as:
 Gaussian 16, Revision B.01,
 M. J. Frisch, G. W. Trucks, H. B. Schlegel, G. E. Scuseria, 
 M. A. Robb, J. R. Cheeseman, G. Scalmani, V. Barone, 
 G. A. Petersson, H. Nakatsuji, X. Li, M. Caricato, A. V. Marenich, 
 J. Bloino, B. G. Janesko, R. Gomperts, B. Mennucci, H. P. Hratchian, 
 J. V. Ortiz, A. F. Izmaylov, J. L. Sonnenberg, D. Williams-Young, 
 F. Ding, F. Lipparini, F. Egidi, J. Goings, B. Peng, A. Petrone, 
 T. Henderson, D. Ranasinghe, V. G. Zakrzewski, J. Gao, N. Rega, 
 G. Zheng, W. Liang, M. Hada, M. Ehara, K. Toyota, R. Fukuda, 
 J. Hasegawa, M. Ishida, T. Nakajima, Y. Honda, O. Kitao, H. Nakai, 
 T. Vreven, K. Throssell, J. A. Montgomery, Jr., J. E. Peralta, 
 F. Ogliaro, M. J. Bearpark, J. J. Heyd, E. N. Brothers, K. N. Kudin, 
 V. N. Staroverov, T. A. Keith, R. Kobayashi, J. Normand, 
 K. Raghavachari, A. P. Rendell, J. C. Burant, S. S. Iyengar, 
 J. Tomasi, M. Cossi, J. M. Millam, M. Klene, C. Adamo, R. Cammi, 
 J. W. Ochterski, R. L. Martin, K. Morokuma, O. Farkas, 
 J. B. Foresman, and D. J. Fox, Gaussian, Inc., Wallingford CT, 2016.
 
 ******************************************
 Gaussian 16:  EM64L-G16RevB.01 20-Dec-2017
                10-Nov-2023 
 ******************************************
 %nproc=4
 Will use up to    4 processors via shared memory.
 %Mem=2Gb
 ---------------------------------
 # TD=(NStates=1) B3LYP/6-31G(d,p)
 ---------------------------------
 1/38=1,172=1/1;
 2/12=2,17=6,18=5,40=1/2;
 3/5=1,6=6,7=101,11=9,25=1,30=1,74=-5/1,2,3,8;
 4//1;
 5/5=2,38=5/2;
 8/6=1,10=2,108=1/1;
 9/41=1,42=1,70=2/14;
 6/7=2,8=2,9=2,10=2/1;
 99/5=1,9=1/99;
 -------
 ABSSPCT
 -------
 Symbolic Z-matrix:
 Charge =  0 Multiplicity = 1
 6                    -0.25351   1.36943   0.02788 
 6                     1.07028   0.89448   0.0103 
 6                     1.30059  -0.45654  -0.02915 
 6                     0.26532  -1.35493   0.05308 
 6                    -1.07725  -0.94184  -0.06523 
 6                    -1.28973   0.44867   0.04068 
 1                    -0.39597   2.50097  -0.10312 
 1                    -2.3064    0.79533  -0.10494 
 1                    -1.92821  -1.5181   -0.14668 
 1                     0.23776  -2.33896   0.14328 
 1                     2.3572   -0.73728  -0.05369 
 1                     1.8967    1.76192  -0.22756 
 
                          Input orientation:                          
 ---------------------------------------------------------------------
 Center     Atomic      Atomic             Coordinates (Angstroms)
 Number     Number       Type             X           Y           Z
 ---------------------------------------------------------------------
      1          6           0       -0.253513    1.369426    0.027875
      2          6           0        1.070282    0.894483    0.010301
      3          6           0        1.300595   -0.456542   -0.029146
      4          6           0        0.265322   -1.354930    0.053078
      5          6           0       -1.077253   -0.941838   -0.065228
      6          6           0       -1.289735    0.448667    0.040681
      7          1           0       -0.395970    2.500969   -0.103125
      8          1           0       -2.306405    0.795333   -0.104941
      9          1           0       -1.928206   -1.518098   -0.146675
     10          1           0        0.237755   -2.338959    0.143280
     11          1           0        2.357202   -0.737277   -0.053690
     12          1           0        1.896703    1.761915   -0.227558
 ---------------------------------------------------------------------
                    Distance matrix (angstroms):
                    1          2          3          4          5
     1  C    0.000000
     2  C    1.406526   0.000000
     3  C    2.398470   1.371082   0.000000
     4  C    2.773435   2.389487   1.373191   0.000000
     5  C    2.455433   2.826603   2.427133   1.409663   0.000000
     6  C    1.386259   2.401948   2.744829   2.381454   1.410627
     7  H    1.147975   2.177972   3.410378   3.915312   3.509773
     8  H    2.135787   3.380108   3.818820   3.355948   2.128416
     9  H    3.342582   3.851768   3.400863   2.208640   1.030937
    10  H    3.742563   3.341546   2.168607   0.988539   1.929941
    11  H    3.355694   2.079158   1.093541   2.183771   3.440561
    12  H    2.200619   1.221470   2.305703   3.529148   4.022567
                    6          7          8          9         10
     6  C    0.000000
     7  H    2.243087   0.000000
     8  H    1.083975   2.561047   0.000000
     9  H    2.076274   4.301459   2.344513   0.000000
    10  H    3.180348   4.887457   4.044521   2.334368   0.000000
    11  H    3.836081   4.250722   4.909251   4.356954   2.663876
    12  H    3.456871   2.412060   4.314561   5.039341   4.439234
                   11         12
    11  H    0.000000
    12  H    2.547205   0.000000
 Stoichiometry    C6H6
 Framework group  C1[X(C6H6)]
 Deg. of freedom    30
 Full point group                 C1      NOp   1
 Largest Abelian subgroup         C1      NOp   1
 Largest concise Abelian subgroup C1      NOp   1
                         Standard orientation:                         
 ---------------------------------------------------------------------
 Center     Atomic      Atomic             Coordinates (Angstroms)
 Number     Number       Type             X           Y           Z
 ---------------------------------------------------------------------
      1          6           0       -0.783026    1.144903   -0.044851
      2          6           0       -1.386585   -0.125348   -0.022605
      3          6           0       -0.597184   -1.245267    0.027334
      4          6           0        0.770745   -1.152426   -0.048850
      5          6           0        1.430583    0.088036    0.065237
      6          6           0        0.601017    1.222970   -0.051449
      7          1           0       -1.480734    2.048289    0.077397
      8          1           0        1.076538    2.186645    0.090719
      9          1           0        2.439864    0.280203    0.150407
     10          1           0        1.484745   -1.831080   -0.131561
     11          1           0       -1.148337   -2.189357    0.054857
     12          1           0       -2.585375   -0.091900    0.209281
 ---------------------------------------------------------------------
 Rotational constants (GHZ):           5.8700620           5.5755657           2.8674550
 Standard basis: 6-31G(d,p) (6D, 7F)
 There are   120 symmetry adapted cartesian basis functions of A   symmetry.
 There are   120 symmetry adapted basis functions of A   symmetry.
   120 basis functions,   210 primitive gaussians,   120 cartesian basis functions
    21 alpha electrons       21 beta electrons
       nuclear repulsion energy       203.8132581164 Hartrees.
 NAtoms=   12 NActive=   12 NUniq=   12 SFac= 1.00D+00 NAtFMM=   60 NAOKFM=F Big=F
 Integral buffers will be    131072 words long.
 Regular integral format.
 Two-electron integral symmetry is turned on.
 One-electron integrals computed using PRISM.
 NBasis=   120 RedAO= T EigKep=  7.49D-04  NBF=   120
 NBsUse=   120 1.00D-06 EigRej= -1.00D+00 NBFU=   120
 ExpMin= 1.61D-01 ExpMax= 3.05D+03 ExpMxC= 4.57D+02 IAcc=3 IRadAn=         5 AccDes= 0.00D+00
 Harris functional with IExCor=  402 and IRadAn=       5 diagonalized for initial guess.
 HarFok:  IExCor=  402 AccDes= 0.00D+00 IRadAn=         5 IDoV= 1 UseB2=F ITyADJ=14
 ICtDFT=  3500011 ScaDFX=  1.000000  1.000000  1.000000  1.000000
 FoFCou: FMM=F IPFlag=           0 FMFlag=      100000 FMFlg1=           0
         NFxFlg=           0 DoJE=T BraDBF=F KetDBF=T FulRan=T
         wScrn=  0.000000 ICntrl=       500 IOpCl=  0 I1Cent=   200000004 NGrid=           0
         NMat0=    1 NMatS0=      1 NMatT0=    0 NMatD0=    1 NMtDS0=    0 NMtDT0=    0
 Petite list used in FoFCou.
 Keep R1 ints in memory in canonical form, NReq=30147728.
 Requested convergence on RMS density matrix=1.00D-08 within 128 cycles.
 Requested convergence on MAX density matrix=1.00D-06.
 Requested convergence on             energy=1.00D-06.
 No special actions if energy rises.
 Integral accuracy reduced to 1.0D-05 until final iterations.
 Initial convergence to 1.0D-05 achieved.  Increase integral accuracy.
 SCF Done:  E(RB3LYP) =  -232.215767765     A.U. after   13 cycles
            NFock= 13  Conv=0.36D-08     -V/T= 2.0095
 DoSCS=F DFT=T ScalE2(SS,OS)=  1.000000  1.000000
 ExpMin= 1.61D-01 ExpMax= 3.05D+03 ExpMxC= 4.57D+02 IAcc=3 IRadAn=         5 AccDes= 0.00D+00
 HarFok:  IExCor=  205 AccDes= 0.00D+00 IRadAn=         5 IDoV=-2 UseB2=F ITyADJ=14
 ICtDFT= 12500011 ScaDFX=  1.000000  1.000000  1.000000  1.000000
 Range of M.O.s used for correlation:     7   120
 NBasis=   120 NAE=    21 NBE=    21 NFC=     6 NFV=     0
 NROrb=    114 NOA=    15 NOB=    15 NVA=    99 NVB=    99
 Keep R1, R2, and R3 ints in memory in canonical form, NReq=84032236.
 Orbital symmetries:
       Occupied  (A) (A) (A) (A) (A) (A) (A) (A) (A) (A) (A) (A)
                 (A) (A) (A) (A) (A) (A) (A) (A) (A)
       Virtual   (A) (A) (A) (A) (A) (A) (A) (A) (A) (A) (A) (A)
                 (A) (A) (A) (A) (A) (A) (A) (A) (A) (A) (A) (A)
                 (A) (A) (A) (A) (A) (A) (A) (A) (A) (A) (A) (A)
                 (A) (A) (A) (A) (A) (A) (A) (A) (A) (A) (A) (A)
                 (A) (A) (A) (A) (A) (A) (A) (A) (A) (A) (A) (A)
                 (A) (A) (A) (A) (A) (A) (A) (A) (A) (A) (A) (A)
                 (A) (A) (A) (A) (A) (A) (A) (A) (A) (A) (A) (A)
                 (A) (A) (A) (A) (A) (A) (A) (A) (A) (A) (A) (A)
                 (A) (A) (A)
     4 initial guesses have been made.
 Convergence on wavefunction:    0.001000000000000
 Iteration     1 Dimension     4 NMult     0 NNew      4
 CISAX will form     4 AO SS matrices at one time.
 New state      1 was old state      2
 Iteration     2 Dimension     6 NMult     4 NNew      2
 Iteration     3 Dimension     8 NMult     6 NNew      2
 Iteration     4 Dimension    10 NMult     8 NNew      2
 Iteration     5 Dimension    12 NMult    10 NNew      2
 ***********************************************************************
 Excited states from <AA,BB:AA,BB> singles matrix:
 ***********************************************************************
 
 Ground to excited state transition densities written to RWF  633
 Ground to excited state transition electric dipole moments (Au):
       state          X           Y           Z        Dip. S.      Osc.
         1        -0.0166      0.0565      0.0032      0.0035      0.0005
 Ground to excited state transition velocity dipole moments (Au):
       state          X           Y           Z        Dip. S.      Osc.
         1         0.0037     -0.0113      0.0002      0.0001      0.0005
 Ground to excited state transition magnetic dipole moments (Au):
       state          X           Y           Z
         1         0.0036     -0.0179     -0.0067
 Ground to excited state transition velocity quadrupole moments (Au):
       state          XX          YY          ZZ          XY          XZ          YZ
         1         0.0081     -0.0106      0.0013      0.0079      0.0097      0.0179
 <0|del|b> * <b|rxdel|0> + <0|del|b> * <b|delr+rdel|0>
 Rotatory Strengths (R) in cgs (10**-40 erg-esu-cm/Gauss)
       state          XX          YY          ZZ    R(velocity)    E-M Angle
         1         0.5504      0.1346      0.0699      0.2516       90.00
 1/2[<0|r|b>*<b|rxdel|0> + (<0|rxdel|b>*<b|r|0>)*]
 Rotatory Strengths (R) in cgs (10**-40 erg-esu-cm/Gauss)
       state          XX          YY          ZZ     R(length)
         1         0.0426      0.7155      0.0153      0.2578
  1/2[<0|del|b>*<b|r|0> + (<0|r|b>*<b|del|0>)*] (Au)
       state          X           Y           Z        Dip. S.   Osc.(frdel)
         1        -0.0001     -0.0006      0.0000      0.0007      0.0005

 Excitation energies and oscillator strengths:
 
 Excited State   1:      Singlet-A      5.4664 eV  226.81 nm  f=0.0005  <S**2>=0.000
      20 -> 22         0.49971
      21 -> 22        -0.12916
      21 -> 23         0.47256
 This state for optimization and/or second-order correction.
 Total Energy, E(TD-HF/TD-DFT) =  -232.014879446    
 Copying the excited state density for this state as the 1-particle RhoCI density.
 SavETr:  write IOETrn=   770 NScale= 10 NData=  16 NLR=1 NState=    1 LETran=      28.

 **********************************************************************

            Population analysis using the SCF Density.

 **********************************************************************

 Orbital symmetries:
       Occupied  (A) (A) (A) (A) (A) (A) (A) (A) (A) (A) (A) (A)
                 (A) (A) (A) (A) (A) (A) (A) (A) (A)
       Virtual   (A) (A) (A) (A) (A) (A) (A) (A) (A) (A) (A) (A)
                 (A) (A) (A) (A) (A) (A) (A) (A) (A) (A) (A) (A)
                 (A) (A) (A) (A) (A) (A) (A) (A) (A) (A) (A) (A)
                 (A) (A) (A) (A) (A) (A) (A) (A) (A) (A) (A) (A)
                 (A) (A) (A) (A) (A) (A) (A) (A) (A) (A) (A) (A)
                 (A) (A) (A) (A) (A) (A) (A) (A) (A) (A) (A) (A)
                 (A) (A) (A) (A) (A) (A) (A) (A) (A) (A) (A) (A)
                 (A) (A) (A) (A) (A) (A) (A) (A) (A) (A) (A) (A)
                 (A) (A) (A)
 The electronic state is 1-A.
 Alpha  occ. eigenvalues --  -10.19756 -10.19238 -10.18909 -10.18478 -10.18411
 Alpha  occ. eigenvalues --  -10.18080  -0.85103  -0.74419  -0.74187  -0.60626
 Alpha  occ. eigenvalues --   -0.59378  -0.51862  -0.46219  -0.44293  -0.41610
 Alpha  occ. eigenvalues --   -0.40779  -0.36333  -0.34352  -0.32248  -0.24936
 Alpha  occ. eigenvalues --   -0.24508
 Alpha virt. eigenvalues --   -0.00400   0.00433   0.07676   0.13424   0.14526
 Alpha virt. eigenvalues --    0.15376   0.17415   0.18134   0.20203   0.28753
 Alpha virt. eigenvalues --    0.30134   0.31497   0.33918   0.46342   0.52356
 Alpha virt. eigenvalues --    0.52540   0.53909   0.56222   0.59386   0.59506
 Alpha virt. eigenvalues --    0.60378   0.60788   0.61828   0.63209   0.63509
 Alpha virt. eigenvalues --    0.66423   0.66743   0.73863   0.77515   0.80596
 Alpha virt. eigenvalues --    0.82668   0.84299   0.86032   0.92441   0.93685
 Alpha virt. eigenvalues --    0.94189   0.95519   1.06168   1.07746   1.09314
 Alpha virt. eigenvalues --    1.10707   1.18146   1.26835   1.28736   1.29984
 Alpha virt. eigenvalues --    1.37597   1.40937   1.44808   1.47608   1.54284
 Alpha virt. eigenvalues --    1.70592   1.74432   1.76521   1.79764   1.89484
 Alpha virt. eigenvalues --    1.90990   1.97448   1.99170   1.99917   2.02164
 Alpha virt. eigenvalues --    2.04286   2.06504   2.11534   2.22848   2.27274
 Alpha virt. eigenvalues --    2.29383   2.34426   2.36038   2.38819   2.40300
 Alpha virt. eigenvalues --    2.43716   2.44466   2.45911   2.48029   2.51105
 Alpha virt. eigenvalues --    2.52906   2.56119   2.56985   2.62177   2.71909
 Alpha virt. eigenvalues --    2.76303   2.79462   2.84442   2.94547   3.00843
 Alpha virt. eigenvalues --    3.10175   3.20017   3.22006   3.32390   3.39813
 Alpha virt. eigenvalues --    3.48753   3.70883   3.96062   4.14068   4.16787
 Alpha virt. eigenvalues --    4.17424   4.43778   4.46625   4.81896
          Condensed to atoms (all electrons):
               1          2          3          4          5          6
     1  C    4.817831   0.537170  -0.046947  -0.043456  -0.037375   0.561077
     2  C    0.537170   4.833264   0.549995  -0.028803  -0.038695  -0.040123
     3  C   -0.046947   0.549995   4.799001   0.550757  -0.032242  -0.043159
     4  C   -0.043456  -0.028803   0.550757   4.786012   0.533994  -0.034183
     5  C   -0.037375  -0.038695  -0.032242   0.533994   4.836461   0.545375
     6  C    0.561077  -0.040123  -0.043159  -0.034183   0.545375   4.804767
     7  H    0.360494  -0.039647   0.004811   0.000502   0.003967  -0.036869
     8  H   -0.043913   0.005312   0.000855   0.006293  -0.047129   0.362966
     9  H    0.005377   0.000532   0.004464  -0.040753   0.376738  -0.043068
    10  H    0.001086   0.005110  -0.046634   0.379749  -0.059096   0.007322
    11  H    0.005644  -0.046107   0.371236  -0.044068   0.004168   0.000578
    12  H   -0.037948   0.350082  -0.031337   0.003134   0.000496   0.004372
               7          8          9         10         11         12
     1  C    0.360494  -0.043913   0.005377   0.001086   0.005644  -0.037948
     2  C   -0.039647   0.005312   0.000532   0.005110  -0.046107   0.350082
     3  C    0.004811   0.000855   0.004464  -0.046634   0.371236  -0.031337
     4  C    0.000502   0.006293  -0.040753   0.379749  -0.044068   0.003134
     5  C    0.003967  -0.047129   0.376738  -0.059096   0.004168   0.000496
     6  C   -0.036869   0.362966  -0.043068   0.007322   0.000578   0.004372
     7  H    0.635009  -0.006327  -0.000170   0.000020  -0.000245  -0.006869
     8  H   -0.006327   0.654154  -0.007632  -0.000462   0.000020  -0.000196
     9  H   -0.000170  -0.007632   0.622301  -0.007238  -0.000135   0.000013
    10  H    0.000020  -0.000462  -0.007238   0.648174  -0.005892  -0.000119
    11  H   -0.000245   0.000020  -0.000135  -0.005892   0.633416  -0.005935
    12  H   -0.006869  -0.000196   0.000013  -0.000119  -0.005935   0.647740
 Mulliken charges:
               1
     1  C   -0.079040
     2  C   -0.088088
     3  C   -0.080798
     4  C   -0.069176
     5  C   -0.086662
     6  C   -0.089055
     7  H    0.085323
     8  H    0.076058
     9  H    0.089572
    10  H    0.077980
    11  H    0.087319
    12  H    0.076568
 Sum of Mulliken charges =  -0.00000
 Mulliken charges with hydrogens summed into heavy atoms:
               1
     1  C    0.006283
     2  C   -0.011520
     3  C    0.006520
     4  C    0.008805
     5  C    0.002909
     6  C   -0.012997
 Electronic spatial extent (au):  <R**2>=            456.1316
 Charge=             -0.0000 electrons
 Dipole moment (field-independent basis, Debye):
    X=              0.2124    Y=              0.0421    Z=              0.2497  Tot=              0.3305
 Quadrupole moment (field-independent basis, Debye-Ang):
   XX=            -30.9232   YY=            -32.5637   ZZ=            -38.4098
   XY=             -0.1408   XZ=             -0.3338   YZ=              0.4439
 Traceless Quadrupole moment (field-independent basis, Debye-Ang):
   XX=              3.0423   YY=              1.4019   ZZ=             -4.4442
   XY=             -0.1408   XZ=             -0.3338   YZ=              0.4439
 Octapole moment (field-independent basis, Debye-Ang**2):
  XXX=              2.7335  YYY=              0.1397  ZZZ=              0.2453  XYY=             -0.2383
  XXY=              0.4850  XXZ=              1.8248  XZZ=              0.6447  YZZ=             -0.3093
  YYZ=              0.6201  XYZ=              0.4246
 Hexadecapole moment (field-independent basis, Debye-Ang**3):
 XXXX=           -274.5593 YYYY=           -271.3444 ZZZZ=            -40.6701 XXXY=             -1.8143
 XXXZ=             -1.9571 YYYX=              0.5187 YYYZ=              2.1583 ZZZX=             -0.1667
 ZZZY=              0.5029 XXYY=            -89.2128 XXZZ=            -61.5558 YYZZ=            -58.5991
 XXYZ=              1.2370 YYXZ=             -0.7631 ZZXY=             -0.1375
 N-N= 2.038132581164D+02 E-N=-9.449641226765D+02  KE= 2.300201325388D+02
 1\1\GINC-DESKTOP-PRN5QE3\SP\RB3LYP TD-FC\6-31G(d,p)\C6H6\SHOHEI\10-Nov
 -2023\0\\# TD=(NStates=1) B3LYP/6-31G(d,p)\\ABSSPCT\\0,1\C,0,-0.253512
 9948,1.3694255116,0.0278753932\C,0,1.0702824697,0.8944825216,0.0103014
 647\C,0,1.300594933,-0.456541929,-0.029146035\C,0,0.2653222925,-1.3549
 304439,0.0530783098\C,0,-1.0772530179,-0.9418376102,-0.0652279338\C,0,
 -1.2897346905,0.4486673868,0.040681065\H,0,-0.3959695544,2.5009693543,
 -0.1031247682\H,0,-2.3064047825,0.7953333865,-0.1049414202\H,0,-1.9282
 058328,-1.5180982294,-0.146675482\H,0,0.2377550381,-2.3389593252,0.143
 2800029\H,0,2.3572016887,-0.7372772361,-0.0536903932\H,0,1.8967033011,
 1.7619151706,-0.2275582883\\Version=EM64L-G16RevB.01\State=1-A\HF=-232
 .2157678\RMSD=3.636e-09\PG=C01 [X(C6H6)]\\@


 LAWS OF PROGRAMMING DEFINITION:  A WORKING PROGRAM
                                  IS ONE THAT HAS
                                  ONLY UNOBSERVED
                                  BUGS.
 Job cpu time:       0 days  0 hours  3 minutes  6.6 seconds.
 Elapsed time:       0 days  0 hours  0 minutes 47.3 seconds.
 File lengths (MBytes):  RWF=    116 Int=      0 D2E=      0 Chk=      3 Scr=      1
 Normal termination of Gaussian 16 at Fri Nov 10 17:26:10 2023.
