 Entering Gaussian System, Link 0=g16
 Input=Geometry-208-.com
 Output=Geometry-208-.log
 Initial command:
 /home/shohei/gaussian/g16/l1.exe "/home/shohei/gaussian/scratch/Gau-9009.inp" -scrdir="/home/shohei/gaussian/scratch/"
 Entering Link 1 = /home/shohei/gaussian/g16/l1.exe PID=      9011.
  
 Copyright (c) 1988-2017, Gaussian, Inc.  All Rights Reserved.
  
 This is part of the Gaussian(R) 16 program.  It is based on
 the Gaussian(R) 09 system (copyright 2009, Gaussian, Inc.),
 the Gaussian(R) 03 system (copyright 2003, Gaussian, Inc.),
 the Gaussian(R) 98 system (copyright 1998, Gaussian, Inc.),
 the Gaussian(R) 94 system (copyright 1995, Gaussian, Inc.),
 the Gaussian 92(TM) system (copyright 1992, Gaussian, Inc.),
 the Gaussian 90(TM) system (copyright 1990, Gaussian, Inc.),
 the Gaussian 88(TM) system (copyright 1988, Gaussian, Inc.),
 the Gaussian 86(TM) system (copyright 1986, Carnegie Mellon
 University), and the Gaussian 82(TM) system (copyright 1983,
 Carnegie Mellon University). Gaussian is a federally registered
 trademark of Gaussian, Inc.
  
 This software contains proprietary and confidential information,
 including trade secrets, belonging to Gaussian, Inc.
  
 This software is provided under written license and may be
 used, copied, transmitted, or stored only in accord with that
 written license.
  
 The following legend is applicable only to US Government
 contracts under FAR:
  
                    RESTRICTED RIGHTS LEGEND
  
 Use, reproduction and disclosure by the US Government is
 subject to restrictions as set forth in subparagraphs (a)
 and (c) of the Commercial Computer Software - Restricted
 Rights clause in FAR 52.227-19.
  
 Gaussian, Inc.
 340 Quinnipiac St., Bldg. 40, Wallingford CT 06492
  
  
 ---------------------------------------------------------------
 Warning -- This program may not be used in any manner that
 competes with the business of Gaussian, Inc. or will provide
 assistance to any competitor of Gaussian, Inc.  The licensee
 of this program is prohibited from giving any competitor of
 Gaussian, Inc. access to this program.  By using this program,
 the user acknowledges that Gaussian, Inc. is engaged in the
 business of creating and licensing software in the field of
 computational chemistry and represents and warrants to the
 licensee that it is not a competitor of Gaussian, Inc. and that
 it will not use this program in any manner prohibited above.
 ---------------------------------------------------------------
  

 Cite this work as:
 Gaussian 16, Revision B.01,
 M. J. Frisch, G. W. Trucks, H. B. Schlegel, G. E. Scuseria, 
 M. A. Robb, J. R. Cheeseman, G. Scalmani, V. Barone, 
 G. A. Petersson, H. Nakatsuji, X. Li, M. Caricato, A. V. Marenich, 
 J. Bloino, B. G. Janesko, R. Gomperts, B. Mennucci, H. P. Hratchian, 
 J. V. Ortiz, A. F. Izmaylov, J. L. Sonnenberg, D. Williams-Young, 
 F. Ding, F. Lipparini, F. Egidi, J. Goings, B. Peng, A. Petrone, 
 T. Henderson, D. Ranasinghe, V. G. Zakrzewski, J. Gao, N. Rega, 
 G. Zheng, W. Liang, M. Hada, M. Ehara, K. Toyota, R. Fukuda, 
 J. Hasegawa, M. Ishida, T. Nakajima, Y. Honda, O. Kitao, H. Nakai, 
 T. Vreven, K. Throssell, J. A. Montgomery, Jr., J. E. Peralta, 
 F. Ogliaro, M. J. Bearpark, J. J. Heyd, E. N. Brothers, K. N. Kudin, 
 V. N. Staroverov, T. A. Keith, R. Kobayashi, J. Normand, 
 K. Raghavachari, A. P. Rendell, J. C. Burant, S. S. Iyengar, 
 J. Tomasi, M. Cossi, J. M. Millam, M. Klene, C. Adamo, R. Cammi, 
 J. W. Ochterski, R. L. Martin, K. Morokuma, O. Farkas, 
 J. B. Foresman, and D. J. Fox, Gaussian, Inc., Wallingford CT, 2016.
 
 ******************************************
 Gaussian 16:  EM64L-G16RevB.01 20-Dec-2017
                10-Nov-2023 
 ******************************************
 %nproc=4
 Will use up to    4 processors via shared memory.
 %Mem=2Gb
 ---------------------------------
 # TD=(NStates=1) B3LYP/6-31G(d,p)
 ---------------------------------
 1/38=1,172=1/1;
 2/12=2,17=6,18=5,40=1/2;
 3/5=1,6=6,7=101,11=9,25=1,30=1,74=-5/1,2,3,8;
 4//1;
 5/5=2,38=5/2;
 8/6=1,10=2,108=1/1;
 9/41=1,42=1,70=2/14;
 6/7=2,8=2,9=2,10=2/1;
 99/5=1,9=1/99;
 -------
 ABSSPCT
 -------
 Symbolic Z-matrix:
 Charge =  0 Multiplicity = 1
 6                    -0.30114   1.42293  -0.01123 
 6                     1.06935   0.91986  -0.02084 
 6                     1.25539  -0.49226   0.02099 
 6                     0.25213  -1.43837  -0.00273 
 6                    -1.02734  -0.90548   0.03686 
 6                    -1.28491   0.46966  -0.02068 
 1                    -0.29731   2.55486  -0.03457 
 1                    -2.22597   0.74584   0.12812 
 1                    -1.78237  -1.45889  -0.09374 
 1                     0.61317  -2.47876  -0.18272 
 1                     2.33451  -0.62546  -0.05957 
 1                     1.81591   1.52902   0.18767 
 
                          Input orientation:                          
 ---------------------------------------------------------------------
 Center     Atomic      Atomic             Coordinates (Angstroms)
 Number     Number       Type             X           Y           Z
 ---------------------------------------------------------------------
      1          6           0       -0.301136    1.422929   -0.011232
      2          6           0        1.069347    0.919857   -0.020843
      3          6           0        1.255391   -0.492257    0.020985
      4          6           0        0.252125   -1.438373   -0.002725
      5          6           0       -1.027339   -0.905484    0.036865
      6          6           0       -1.284911    0.469660   -0.020685
      7          1           0       -0.297305    2.554856   -0.034575
      8          1           0       -2.225974    0.745835    0.128119
      9          1           0       -1.782368   -1.458890   -0.093743
     10          1           0        0.613166   -2.478757   -0.182720
     11          1           0        2.334505   -0.625465   -0.059569
     12          1           0        1.815908    1.529020    0.187670
 ---------------------------------------------------------------------
                    Distance matrix (angstroms):
                    1          2          3          4          5
     1  C    0.000000
     2  C    1.459931   0.000000
     3  C    2.468147   1.424931   0.000000
     4  C    2.914313   2.495882   1.379217   0.000000
     5  C    2.439506   2.780520   2.319885   1.386567   0.000000
     6  C    1.369899   2.396917   2.716644   2.450182   1.400241
     7  H    1.132174   2.130997   3.420358   4.030976   3.537231
     8  H    2.045208   3.303273   3.696519   3.305883   2.042524
     9  H    3.241255   3.714301   3.189909   2.036631   0.945190
    10  H    4.011048   3.432911   2.097648   1.115862   2.283564
    11  H    3.338392   1.997534   1.090285   2.236148   3.374864
    12  H    2.129013   0.985855   2.104169   3.359626   3.746146
                    6          7          8          9         10
     6  C    0.000000
     7  H    2.307293   0.000000
     8  H    0.991975   2.649300   0.000000
     9  H    1.993014   4.280078   2.259828   0.000000
    10  H    3.510287   5.117437   4.307590   2.605116   0.000000
    11  H    3.781664   4.128134   4.765885   4.200525   2.532363
    12  H    3.283403   2.359535   4.117492   4.685551   4.200720
                   11         12
    11  H    0.000000
    12  H    2.229770   0.000000
 Stoichiometry    C6H6
 Framework group  C1[X(C6H6)]
 Deg. of freedom    30
 Full point group                 C1      NOp   1
 Largest Abelian subgroup         C1      NOp   1
 Largest concise Abelian subgroup C1      NOp   1
                         Standard orientation:                         
 ---------------------------------------------------------------------
 Center     Atomic      Atomic             Coordinates (Angstroms)
 Number     Number       Type             X           Y           Z
 ---------------------------------------------------------------------
      1          6           0       -1.447744   -0.118866   -0.021107
      2          6           0       -0.770046    1.174232   -0.025867
      3          6           0        0.653917    1.174382    0.026647
      4          6           0        1.461147    0.056208    0.009196
      5          6           0        0.765542   -1.142752    0.043784
      6          6           0       -0.630985   -1.218647   -0.024232
      7          1           0       -2.569282    0.032667   -0.052893
      8          1           0       -1.028732   -2.115587    0.121754
      9          1           0        1.216634   -1.963576   -0.083293
     10          1           0        2.541075    0.278338   -0.162741
     11          1           0        0.927429    2.226865   -0.052047
     12          1           0       -1.278106    1.993952    0.178691
 ---------------------------------------------------------------------
 Rotational constants (GHZ):           5.9875334           5.4225466           2.8497848
 Standard basis: 6-31G(d,p) (6D, 7F)
 There are   120 symmetry adapted cartesian basis functions of A   symmetry.
 There are   120 symmetry adapted basis functions of A   symmetry.
   120 basis functions,   210 primitive gaussians,   120 cartesian basis functions
    21 alpha electrons       21 beta electrons
       nuclear repulsion energy       204.0843012022 Hartrees.
 NAtoms=   12 NActive=   12 NUniq=   12 SFac= 1.00D+00 NAtFMM=   60 NAOKFM=F Big=F
 Integral buffers will be    131072 words long.
 Regular integral format.
 Two-electron integral symmetry is turned on.
 One-electron integrals computed using PRISM.
 NBasis=   120 RedAO= T EigKep=  8.03D-04  NBF=   120
 NBsUse=   120 1.00D-06 EigRej= -1.00D+00 NBFU=   120
 ExpMin= 1.61D-01 ExpMax= 3.05D+03 ExpMxC= 4.57D+02 IAcc=3 IRadAn=         5 AccDes= 0.00D+00
 Harris functional with IExCor=  402 and IRadAn=       5 diagonalized for initial guess.
 HarFok:  IExCor=  402 AccDes= 0.00D+00 IRadAn=         5 IDoV= 1 UseB2=F ITyADJ=14
 ICtDFT=  3500011 ScaDFX=  1.000000  1.000000  1.000000  1.000000
 FoFCou: FMM=F IPFlag=           0 FMFlag=      100000 FMFlg1=           0
         NFxFlg=           0 DoJE=T BraDBF=F KetDBF=T FulRan=T
         wScrn=  0.000000 ICntrl=       500 IOpCl=  0 I1Cent=   200000004 NGrid=           0
         NMat0=    1 NMatS0=      1 NMatT0=    0 NMatD0=    1 NMtDS0=    0 NMtDT0=    0
 Petite list used in FoFCou.
 Keep R1 ints in memory in canonical form, NReq=30147728.
 Requested convergence on RMS density matrix=1.00D-08 within 128 cycles.
 Requested convergence on MAX density matrix=1.00D-06.
 Requested convergence on             energy=1.00D-06.
 No special actions if energy rises.
 Integral accuracy reduced to 1.0D-05 until final iterations.
 Initial convergence to 1.0D-05 achieved.  Increase integral accuracy.
 SCF Done:  E(RB3LYP) =  -232.194432544     A.U. after   13 cycles
            NFock= 13  Conv=0.97D-08     -V/T= 2.0081
 DoSCS=F DFT=T ScalE2(SS,OS)=  1.000000  1.000000
 ExpMin= 1.61D-01 ExpMax= 3.05D+03 ExpMxC= 4.57D+02 IAcc=3 IRadAn=         5 AccDes= 0.00D+00
 HarFok:  IExCor=  205 AccDes= 0.00D+00 IRadAn=         5 IDoV=-2 UseB2=F ITyADJ=14
 ICtDFT= 12500011 ScaDFX=  1.000000  1.000000  1.000000  1.000000
 Range of M.O.s used for correlation:     7   120
 NBasis=   120 NAE=    21 NBE=    21 NFC=     6 NFV=     0
 NROrb=    114 NOA=    15 NOB=    15 NVA=    99 NVB=    99
 Keep R1, R2, and R3 ints in memory in canonical form, NReq=84032236.
 Orbital symmetries:
       Occupied  (A) (A) (A) (A) (A) (A) (A) (A) (A) (A) (A) (A)
                 (A) (A) (A) (A) (A) (A) (A) (A) (A)
       Virtual   (A) (A) (A) (A) (A) (A) (A) (A) (A) (A) (A) (A)
                 (A) (A) (A) (A) (A) (A) (A) (A) (A) (A) (A) (A)
                 (A) (A) (A) (A) (A) (A) (A) (A) (A) (A) (A) (A)
                 (A) (A) (A) (A) (A) (A) (A) (A) (A) (A) (A) (A)
                 (A) (A) (A) (A) (A) (A) (A) (A) (A) (A) (A) (A)
                 (A) (A) (A) (A) (A) (A) (A) (A) (A) (A) (A) (A)
                 (A) (A) (A) (A) (A) (A) (A) (A) (A) (A) (A) (A)
                 (A) (A) (A) (A) (A) (A) (A) (A) (A) (A) (A) (A)
                 (A) (A) (A)
     4 initial guesses have been made.
 Convergence on wavefunction:    0.001000000000000
 Iteration     1 Dimension     4 NMult     0 NNew      4
 CISAX will form     4 AO SS matrices at one time.
 New state      1 was old state      3
 Iteration     2 Dimension     6 NMult     4 NNew      2
 Iteration     3 Dimension     8 NMult     6 NNew      2
 Iteration     4 Dimension    10 NMult     8 NNew      2
 Iteration     5 Dimension    12 NMult    10 NNew      2
 ***********************************************************************
 Excited states from <AA,BB:AA,BB> singles matrix:
 ***********************************************************************
 
 Ground to excited state transition densities written to RWF  633
 Ground to excited state transition electric dipole moments (Au):
       state          X           Y           Z        Dip. S.      Osc.
         1        -0.0858      0.1503     -0.0082      0.0300      0.0039
 Ground to excited state transition velocity dipole moments (Au):
       state          X           Y           Z        Dip. S.      Osc.
         1         0.0171     -0.0329      0.0016      0.0014      0.0047
 Ground to excited state transition magnetic dipole moments (Au):
       state          X           Y           Z
         1         0.0020     -0.0114      0.0415
 Ground to excited state transition velocity quadrupole moments (Au):
       state          XX          YY          ZZ          XY          XZ          YZ
         1         0.0098     -0.0158      0.0029     -0.0001      0.0021     -0.0100
 <0|del|b> * <b|rxdel|0> + <0|del|b> * <b|delr+rdel|0>
 Rotatory Strengths (R) in cgs (10**-40 erg-esu-cm/Gauss)
       state          XX          YY          ZZ    R(velocity)    E-M Angle
         1         0.9125     -0.1263      0.9229      0.5697       72.72
 1/2[<0|r|b>*<b|rxdel|0> + (<0|rxdel|b>*<b|r|0>)*]
 Rotatory Strengths (R) in cgs (10**-40 erg-esu-cm/Gauss)
       state          XX          YY          ZZ     R(length)
         1         0.1244      1.2080      0.2391      0.5238
  1/2[<0|del|b>*<b|r|0> + (<0|r|b>*<b|del|0>)*] (Au)
       state          X           Y           Z        Dip. S.   Osc.(frdel)
         1        -0.0015     -0.0049     -0.0000      0.0064      0.0043

 Excitation energies and oscillator strengths:
 
 Excited State   1:      Singlet-A      5.3465 eV  231.90 nm  f=0.0039  <S**2>=0.000
      20 -> 22         0.41580
      20 -> 23        -0.21260
      21 -> 22        -0.33038
      21 -> 23        -0.41511
 This state for optimization and/or second-order correction.
 Total Energy, E(TD-HF/TD-DFT) =  -231.997951316    
 Copying the excited state density for this state as the 1-particle RhoCI density.
 SavETr:  write IOETrn=   770 NScale= 10 NData=  16 NLR=1 NState=    1 LETran=      28.

 **********************************************************************

            Population analysis using the SCF Density.

 **********************************************************************

 Orbital symmetries:
       Occupied  (A) (A) (A) (A) (A) (A) (A) (A) (A) (A) (A) (A)
                 (A) (A) (A) (A) (A) (A) (A) (A) (A)
       Virtual   (A) (A) (A) (A) (A) (A) (A) (A) (A) (A) (A) (A)
                 (A) (A) (A) (A) (A) (A) (A) (A) (A) (A) (A) (A)
                 (A) (A) (A) (A) (A) (A) (A) (A) (A) (A) (A) (A)
                 (A) (A) (A) (A) (A) (A) (A) (A) (A) (A) (A) (A)
                 (A) (A) (A) (A) (A) (A) (A) (A) (A) (A) (A) (A)
                 (A) (A) (A) (A) (A) (A) (A) (A) (A) (A) (A) (A)
                 (A) (A) (A) (A) (A) (A) (A) (A) (A) (A) (A) (A)
                 (A) (A) (A) (A) (A) (A) (A) (A) (A) (A) (A) (A)
                 (A) (A) (A)
 The electronic state is 1-A.
 Alpha  occ. eigenvalues --  -10.19483 -10.19221 -10.18378 -10.17845 -10.17734
 Alpha  occ. eigenvalues --  -10.17568  -0.84671  -0.74512  -0.74306  -0.61434
 Alpha  occ. eigenvalues --   -0.59800  -0.52263  -0.47360  -0.44225  -0.42516
 Alpha  occ. eigenvalues --   -0.40764  -0.35913  -0.35240  -0.31854  -0.25160
 Alpha  occ. eigenvalues --   -0.23859
 Alpha virt. eigenvalues --   -0.00906   0.00563   0.10244   0.12876   0.15180
 Alpha virt. eigenvalues --    0.16209   0.17509   0.20117   0.20904   0.28353
 Alpha virt. eigenvalues --    0.29642   0.31504   0.32612   0.47195   0.51442
 Alpha virt. eigenvalues --    0.53267   0.54445   0.55163   0.58609   0.59470
 Alpha virt. eigenvalues --    0.60074   0.61221   0.62377   0.64200   0.64530
 Alpha virt. eigenvalues --    0.66395   0.67211   0.74661   0.78684   0.81124
 Alpha virt. eigenvalues --    0.84178   0.86753   0.87822   0.92376   0.93641
 Alpha virt. eigenvalues --    0.95640   0.97831   1.05688   1.07432   1.09172
 Alpha virt. eigenvalues --    1.12589   1.13266   1.26261   1.26742   1.32229
 Alpha virt. eigenvalues --    1.36320   1.40449   1.42895   1.46218   1.61929
 Alpha virt. eigenvalues --    1.72304   1.74784   1.77679   1.84373   1.91664
 Alpha virt. eigenvalues --    1.92097   1.94344   1.98734   2.01095   2.02311
 Alpha virt. eigenvalues --    2.05091   2.09194   2.12143   2.21835   2.27354
 Alpha virt. eigenvalues --    2.32459   2.36556   2.37999   2.38717   2.43062
 Alpha virt. eigenvalues --    2.44954   2.46329   2.48324   2.51691   2.55467
 Alpha virt. eigenvalues --    2.56121   2.58518   2.64290   2.67467   2.69248
 Alpha virt. eigenvalues --    2.80142   2.83135   2.87996   2.97752   3.08806
 Alpha virt. eigenvalues --    3.13606   3.27516   3.34827   3.50097   3.52858
 Alpha virt. eigenvalues --    3.64590   3.75562   4.02147   4.13163   4.15080
 Alpha virt. eigenvalues --    4.19957   4.43974   4.47350   4.84294
          Condensed to atoms (all electrons):
               1          2          3          4          5          6
     1  C    4.837512   0.518539  -0.033502  -0.038057  -0.027224   0.555711
     2  C    0.518539   4.853298   0.555301  -0.041894  -0.038660  -0.045279
     3  C   -0.033502   0.555301   4.814587   0.538577  -0.035539  -0.041728
     4  C   -0.038057  -0.041894   0.538577   4.823900   0.540015  -0.032917
     5  C   -0.027224  -0.038660  -0.035539   0.540015   4.778445   0.550732
     6  C    0.555711  -0.045279  -0.041728  -0.032917   0.550732   4.782090
     7  H    0.359716  -0.047323   0.005190   0.000525   0.003479  -0.033921
     8  H   -0.054769   0.006034   0.000519   0.006729  -0.047498   0.382164
     9  H    0.007110   0.001143   0.005966  -0.053522   0.380656  -0.047572
    10  H    0.000320   0.004441  -0.044089   0.368899  -0.034967   0.003445
    11  H    0.006458  -0.053316   0.361490  -0.040110   0.004772   0.001086
    12  H   -0.044163   0.373021  -0.041831   0.005953   0.000696   0.005496
               7          8          9         10         11         12
     1  C    0.359716  -0.054769   0.007110   0.000320   0.006458  -0.044163
     2  C   -0.047323   0.006034   0.001143   0.004441  -0.053316   0.373021
     3  C    0.005190   0.000519   0.005966  -0.044089   0.361490  -0.041831
     4  C    0.000525   0.006729  -0.053522   0.368899  -0.040110   0.005953
     5  C    0.003479  -0.047498   0.380656  -0.034967   0.004772   0.000696
     6  C   -0.033921   0.382164  -0.047572   0.003445   0.001086   0.005496
     7  H    0.633688  -0.004593  -0.000167   0.000014  -0.000334  -0.005488
     8  H   -0.004593   0.644884  -0.011392  -0.000150   0.000019  -0.000327
     9  H   -0.000167  -0.011392   0.652010  -0.004460  -0.000300   0.000019
    10  H    0.000014  -0.000150  -0.004460   0.616366  -0.005882  -0.000202
    11  H   -0.000334   0.000019  -0.000300  -0.005882   0.660016  -0.009584
    12  H   -0.005488  -0.000327   0.000019  -0.000202  -0.009584   0.636249
 Mulliken charges:
               1
     1  C   -0.087652
     2  C   -0.085305
     3  C   -0.084941
     4  C   -0.078099
     5  C   -0.074905
     6  C   -0.079308
     7  H    0.089213
     8  H    0.078379
     9  H    0.070510
    10  H    0.096264
    11  H    0.075684
    12  H    0.080161
 Sum of Mulliken charges =  -0.00000
 Mulliken charges with hydrogens summed into heavy atoms:
               1
     1  C    0.001560
     2  C   -0.005143
     3  C   -0.009257
     4  C    0.018164
     5  C   -0.004395
     6  C   -0.000929
 Electronic spatial extent (au):  <R**2>=            455.0716
 Charge=             -0.0000 electrons
 Dipole moment (field-independent basis, Debye):
    X=             -0.0562    Y=              0.0515    Z=             -0.0224  Tot=              0.0795
 Quadrupole moment (field-independent basis, Debye-Ang):
   XX=            -31.4011   YY=            -31.6124   ZZ=            -38.2095
   XY=             -0.4849   XZ=             -0.6845   YZ=              0.0836
 Traceless Quadrupole moment (field-independent basis, Debye-Ang):
   XX=              2.3399   YY=              2.1286   ZZ=             -4.4686
   XY=             -0.4849   XZ=             -0.6845   YZ=              0.0836
 Octapole moment (field-independent basis, Debye-Ang**2):
  XXX=             -0.1983  YYY=             -0.7055  ZZZ=              0.0538  XYY=             -0.6587
  XXY=              1.3115  XXZ=             -0.8758  XZZ=              0.1322  YZZ=             -0.4042
  YYZ=              0.5509  XYZ=             -0.1751
 Hexadecapole moment (field-independent basis, Debye-Ang**3):
 XXXX=           -276.9818 YYYY=           -255.1661 ZZZZ=            -40.1281 XXXY=             -2.1892
 XXXZ=             -3.0289 YYYX=             -2.9126 YYYZ=              0.4569 ZZZX=             -0.8238
 ZZZY=              0.2080 XXYY=            -92.8249 XXZZ=            -61.8953 YYZZ=            -56.5299
 XXYZ=              0.1393 YYXZ=             -2.3065 ZZXY=             -0.4755
 N-N= 2.040843012022D+02 E-N=-9.457250370165D+02  KE= 2.303358601618D+02
 1\1\GINC-DESKTOP-PRN5QE3\SP\RB3LYP TD-FC\6-31G(d,p)\C6H6\SHOHEI\10-Nov
 -2023\0\\# TD=(NStates=1) B3LYP/6-31G(d,p)\\ABSSPCT\\0,1\C,0,-0.301136
 1427,1.422928769,-0.0112318034\C,0,1.0693472168,0.9198570253,-0.020842
 7416\C,0,1.255390753,-0.4922571357,0.0209854708\C,0,0.2521253672,-1.43
 8372988,-0.0027251177\C,0,-1.0273394558,-0.9054835369,0.0368647331\C,0
 ,-1.2849111981,0.4696599132,-0.0206849531\H,0,-0.2973053096,2.55485598
 07,-0.0345745031\H,0,-2.2259739688,0.7458351293,0.1281190146\H,0,-1.78
 23678011,-1.4588901382,-0.0937427415\H,0,0.6131663659,-2.4787566428,-0
 .1827201968\H,0,2.3345051726,-0.6254648407,-0.0595686136\H,0,1.8159083
 397,1.5290201589,0.1876702251\\Version=EM64L-G16RevB.01\State=1-A\HF=-
 232.1944325\RMSD=9.696e-09\PG=C01 [X(C6H6)]\\@


 Until you make peace with who you are,
 you'll never be content with what you have.
                           -- Doris Mortman
 Job cpu time:       0 days  0 hours  3 minutes 15.8 seconds.
 Elapsed time:       0 days  0 hours  0 minutes 49.5 seconds.
 File lengths (MBytes):  RWF=    116 Int=      0 D2E=      0 Chk=      3 Scr=      1
 Normal termination of Gaussian 16 at Fri Nov 10 18:59:14 2023.
