 Entering Gaussian System, Link 0=g16
 Input=Geometry-231-.com
 Output=Geometry-231-.log
 Initial command:
 /home/shohei/gaussian/g16/l1.exe "/home/shohei/gaussian/scratch/Gau-10929.inp" -scrdir="/home/shohei/gaussian/scratch/"
 Entering Link 1 = /home/shohei/gaussian/g16/l1.exe PID=     10931.
  
 Copyright (c) 1988-2017, Gaussian, Inc.  All Rights Reserved.
  
 This is part of the Gaussian(R) 16 program.  It is based on
 the Gaussian(R) 09 system (copyright 2009, Gaussian, Inc.),
 the Gaussian(R) 03 system (copyright 2003, Gaussian, Inc.),
 the Gaussian(R) 98 system (copyright 1998, Gaussian, Inc.),
 the Gaussian(R) 94 system (copyright 1995, Gaussian, Inc.),
 the Gaussian 92(TM) system (copyright 1992, Gaussian, Inc.),
 the Gaussian 90(TM) system (copyright 1990, Gaussian, Inc.),
 the Gaussian 88(TM) system (copyright 1988, Gaussian, Inc.),
 the Gaussian 86(TM) system (copyright 1986, Carnegie Mellon
 University), and the Gaussian 82(TM) system (copyright 1983,
 Carnegie Mellon University). Gaussian is a federally registered
 trademark of Gaussian, Inc.
  
 This software contains proprietary and confidential information,
 including trade secrets, belonging to Gaussian, Inc.
  
 This software is provided under written license and may be
 used, copied, transmitted, or stored only in accord with that
 written license.
  
 The following legend is applicable only to US Government
 contracts under FAR:
  
                    RESTRICTED RIGHTS LEGEND
  
 Use, reproduction and disclosure by the US Government is
 subject to restrictions as set forth in subparagraphs (a)
 and (c) of the Commercial Computer Software - Restricted
 Rights clause in FAR 52.227-19.
  
 Gaussian, Inc.
 340 Quinnipiac St., Bldg. 40, Wallingford CT 06492
  
  
 ---------------------------------------------------------------
 Warning -- This program may not be used in any manner that
 competes with the business of Gaussian, Inc. or will provide
 assistance to any competitor of Gaussian, Inc.  The licensee
 of this program is prohibited from giving any competitor of
 Gaussian, Inc. access to this program.  By using this program,
 the user acknowledges that Gaussian, Inc. is engaged in the
 business of creating and licensing software in the field of
 computational chemistry and represents and warrants to the
 licensee that it is not a competitor of Gaussian, Inc. and that
 it will not use this program in any manner prohibited above.
 ---------------------------------------------------------------
  

 Cite this work as:
 Gaussian 16, Revision B.01,
 M. J. Frisch, G. W. Trucks, H. B. Schlegel, G. E. Scuseria, 
 M. A. Robb, J. R. Cheeseman, G. Scalmani, V. Barone, 
 G. A. Petersson, H. Nakatsuji, X. Li, M. Caricato, A. V. Marenich, 
 J. Bloino, B. G. Janesko, R. Gomperts, B. Mennucci, H. P. Hratchian, 
 J. V. Ortiz, A. F. Izmaylov, J. L. Sonnenberg, D. Williams-Young, 
 F. Ding, F. Lipparini, F. Egidi, J. Goings, B. Peng, A. Petrone, 
 T. Henderson, D. Ranasinghe, V. G. Zakrzewski, J. Gao, N. Rega, 
 G. Zheng, W. Liang, M. Hada, M. Ehara, K. Toyota, R. Fukuda, 
 J. Hasegawa, M. Ishida, T. Nakajima, Y. Honda, O. Kitao, H. Nakai, 
 T. Vreven, K. Throssell, J. A. Montgomery, Jr., J. E. Peralta, 
 F. Ogliaro, M. J. Bearpark, J. J. Heyd, E. N. Brothers, K. N. Kudin, 
 V. N. Staroverov, T. A. Keith, R. Kobayashi, J. Normand, 
 K. Raghavachari, A. P. Rendell, J. C. Burant, S. S. Iyengar, 
 J. Tomasi, M. Cossi, J. M. Millam, M. Klene, C. Adamo, R. Cammi, 
 J. W. Ochterski, R. L. Martin, K. Morokuma, O. Farkas, 
 J. B. Foresman, and D. J. Fox, Gaussian, Inc., Wallingford CT, 2016.
 
 ******************************************
 Gaussian 16:  EM64L-G16RevB.01 20-Dec-2017
                10-Nov-2023 
 ******************************************
 %nproc=4
 Will use up to    4 processors via shared memory.
 %Mem=2Gb
 ---------------------------------
 # TD=(NStates=1) B3LYP/6-31G(d,p)
 ---------------------------------
 1/38=1,172=1/1;
 2/12=2,17=6,18=5,40=1/2;
 3/5=1,6=6,7=101,11=9,25=1,30=1,74=-5/1,2,3,8;
 4//1;
 5/5=2,38=5/2;
 8/6=1,10=2,108=1/1;
 9/41=1,42=1,70=2/14;
 6/7=2,8=2,9=2,10=2/1;
 99/5=1,9=1/99;
 -------
 ABSSPCT
 -------
 Symbolic Z-matrix:
 Charge =  0 Multiplicity = 1
 6                    -0.25017   1.35245   0.1006 
 6                     1.02364   0.85548  -0.05929 
 6                     1.32197  -0.45518   0.02047 
 6                     0.27832  -1.36634  -0.00456 
 6                    -1.09228  -0.88395  -0.03196 
 6                    -1.2808    0.50102  -0.0333 
 1                    -0.43489   2.30622   0.05062 
 1                    -2.40997   0.76605  -0.11892 
 1                    -1.85995  -1.65692   0.16073 
 1                     0.54374  -2.37368   0.14836 
 1                     2.34291  -0.67086   0.12845 
 1                     1.80722   1.60038  -0.24553 
 
                          Input orientation:                          
 ---------------------------------------------------------------------
 Center     Atomic      Atomic             Coordinates (Angstroms)
 Number     Number       Type             X           Y           Z
 ---------------------------------------------------------------------
      1          6           0       -0.250175    1.352446    0.100595
      2          6           0        1.023645    0.855478   -0.059286
      3          6           0        1.321973   -0.455180    0.020470
      4          6           0        0.278320   -1.366337   -0.004562
      5          6           0       -1.092276   -0.883954   -0.031961
      6          6           0       -1.280803    0.501017   -0.033303
      7          1           0       -0.434891    2.306223    0.050622
      8          1           0       -2.409974    0.766054   -0.118919
      9          1           0       -1.859950   -1.656922    0.160731
     10          1           0        0.543735   -2.373675    0.148361
     11          1           0        2.342911   -0.670856    0.128446
     12          1           0        1.807224    1.600382   -0.245526
 ---------------------------------------------------------------------
                    Distance matrix (angstroms):
                    1          2          3          4          5
     1  C    0.000000
     2  C    1.376647   0.000000
     3  C    2.396994   1.346545   0.000000
     4  C    2.771668   2.344134   1.385657   0.000000
     5  C    2.393364   2.739249   2.452589   1.453264   0.000000
     6  C    1.343524   2.331694   2.773382   2.432838   1.397743
     7  H    0.972783   2.060114   3.273045   3.741578   3.258251
     8  H    2.248728   3.435301   3.929156   3.433233   2.113390
     9  H    3.413398   3.830885   3.404187   2.164246   1.106315
    10  H    3.810060   3.271217   2.074279   1.052883   2.219982
    11  H    3.289167   2.026179   1.049042   2.182640   3.445526
    12  H    2.100991   1.097071   2.128746   3.346197   3.824217
                    6          7          8          9         10
     6  C    0.000000
     7  H    1.995339   0.000000
     8  H    1.163014   2.510342   0.000000
     9  H    2.242712   4.213007   2.500308   0.000000
    10  H    3.409662   4.782124   4.318997   2.508304   0.000000
    11  H    3.811922   4.072498   4.971500   4.317106   2.477301
    12  H    3.284746   2.369176   4.300802   4.921711   4.188638
                   11         12
    11  H    0.000000
    12  H    2.363332   0.000000
 Stoichiometry    C6H6
 Framework group  C1[X(C6H6)]
 Deg. of freedom    30
 Full point group                 C1      NOp   1
 Largest Abelian subgroup         C1      NOp   1
 Largest concise Abelian subgroup C1      NOp   1
                         Standard orientation:                         
 ---------------------------------------------------------------------
 Center     Atomic      Atomic             Coordinates (Angstroms)
 Number     Number       Type             X           Y           Z
 ---------------------------------------------------------------------
      1          6           0       -0.558634   -1.255870   -0.112294
      2          6           0        0.795618   -1.071589    0.052627
      3          6           0        1.391861    0.133912   -0.014040
      4          6           0        0.589694    1.263254    0.019995
      5          6           0       -0.855704    1.113937    0.042482
      6          6           0       -1.362341   -0.188695    0.030007
      7          1           0       -0.961022   -2.140604   -0.071843
      8          1           0       -2.522387   -0.183609    0.112894
      9          1           0       -1.421256    2.046592   -0.142553
     10          1           0        1.083302    2.182224   -0.122862
     11          1           0        2.435195    0.106316   -0.119786
     12          1           0        1.383202   -1.980609    0.231491
 ---------------------------------------------------------------------
 Rotational constants (GHZ):           5.9249745           5.6977103           2.9158456
 Standard basis: 6-31G(d,p) (6D, 7F)
 There are   120 symmetry adapted cartesian basis functions of A   symmetry.
 There are   120 symmetry adapted basis functions of A   symmetry.
   120 basis functions,   210 primitive gaussians,   120 cartesian basis functions
    21 alpha electrons       21 beta electrons
       nuclear repulsion energy       205.5772818043 Hartrees.
 NAtoms=   12 NActive=   12 NUniq=   12 SFac= 1.00D+00 NAtFMM=   60 NAOKFM=F Big=F
 Integral buffers will be    131072 words long.
 Regular integral format.
 Two-electron integral symmetry is turned on.
 One-electron integrals computed using PRISM.
 NBasis=   120 RedAO= T EigKep=  7.48D-04  NBF=   120
 NBsUse=   120 1.00D-06 EigRej= -1.00D+00 NBFU=   120
 ExpMin= 1.61D-01 ExpMax= 3.05D+03 ExpMxC= 4.57D+02 IAcc=3 IRadAn=         5 AccDes= 0.00D+00
 Harris functional with IExCor=  402 and IRadAn=       5 diagonalized for initial guess.
 HarFok:  IExCor=  402 AccDes= 0.00D+00 IRadAn=         5 IDoV= 1 UseB2=F ITyADJ=14
 ICtDFT=  3500011 ScaDFX=  1.000000  1.000000  1.000000  1.000000
 FoFCou: FMM=F IPFlag=           0 FMFlag=      100000 FMFlg1=           0
         NFxFlg=           0 DoJE=T BraDBF=F KetDBF=T FulRan=T
         wScrn=  0.000000 ICntrl=       500 IOpCl=  0 I1Cent=   200000004 NGrid=           0
         NMat0=    1 NMatS0=      1 NMatT0=    0 NMatD0=    1 NMtDS0=    0 NMtDT0=    0
 Petite list used in FoFCou.
 Keep R1 ints in memory in canonical form, NReq=30147728.
 Requested convergence on RMS density matrix=1.00D-08 within 128 cycles.
 Requested convergence on MAX density matrix=1.00D-06.
 Requested convergence on             energy=1.00D-06.
 No special actions if energy rises.
 Integral accuracy reduced to 1.0D-05 until final iterations.
 Initial convergence to 1.0D-05 achieved.  Increase integral accuracy.
 SCF Done:  E(RB3LYP) =  -232.216672827     A.U. after   13 cycles
            NFock= 13  Conv=0.61D-08     -V/T= 2.0081
 DoSCS=F DFT=T ScalE2(SS,OS)=  1.000000  1.000000
 ExpMin= 1.61D-01 ExpMax= 3.05D+03 ExpMxC= 4.57D+02 IAcc=3 IRadAn=         5 AccDes= 0.00D+00
 HarFok:  IExCor=  205 AccDes= 0.00D+00 IRadAn=         5 IDoV=-2 UseB2=F ITyADJ=14
 ICtDFT= 12500011 ScaDFX=  1.000000  1.000000  1.000000  1.000000
 Range of M.O.s used for correlation:     7   120
 NBasis=   120 NAE=    21 NBE=    21 NFC=     6 NFV=     0
 NROrb=    114 NOA=    15 NOB=    15 NVA=    99 NVB=    99
 Keep R1, R2, and R3 ints in memory in canonical form, NReq=84032236.
 Orbital symmetries:
       Occupied  (A) (A) (A) (A) (A) (A) (A) (A) (A) (A) (A) (A)
                 (A) (A) (A) (A) (A) (A) (A) (A) (A)
       Virtual   (A) (A) (A) (A) (A) (A) (A) (A) (A) (A) (A) (A)
                 (A) (A) (A) (A) (A) (A) (A) (A) (A) (A) (A) (A)
                 (A) (A) (A) (A) (A) (A) (A) (A) (A) (A) (A) (A)
                 (A) (A) (A) (A) (A) (A) (A) (A) (A) (A) (A) (A)
                 (A) (A) (A) (A) (A) (A) (A) (A) (A) (A) (A) (A)
                 (A) (A) (A) (A) (A) (A) (A) (A) (A) (A) (A) (A)
                 (A) (A) (A) (A) (A) (A) (A) (A) (A) (A) (A) (A)
                 (A) (A) (A) (A) (A) (A) (A) (A) (A) (A) (A) (A)
                 (A) (A) (A)
     4 initial guesses have been made.
 Convergence on wavefunction:    0.001000000000000
 Iteration     1 Dimension     4 NMult     0 NNew      4
 CISAX will form     4 AO SS matrices at one time.
 New state      1 was old state      3
 Iteration     2 Dimension     6 NMult     4 NNew      2
 Iteration     3 Dimension     8 NMult     6 NNew      2
 Iteration     4 Dimension    10 NMult     8 NNew      2
 Iteration     5 Dimension    12 NMult    10 NNew      2
 Iteration     6 Dimension    14 NMult    12 NNew      2
 ***********************************************************************
 Excited states from <AA,BB:AA,BB> singles matrix:
 ***********************************************************************
 
 Ground to excited state transition densities written to RWF  633
 Ground to excited state transition electric dipole moments (Au):
       state          X           Y           Z        Dip. S.      Osc.
         1         0.1315     -0.0382      0.0011      0.0188      0.0025
 Ground to excited state transition velocity dipole moments (Au):
       state          X           Y           Z        Dip. S.      Osc.
         1        -0.0256      0.0073      0.0009      0.0007      0.0024
 Ground to excited state transition magnetic dipole moments (Au):
       state          X           Y           Z
         1         0.0143      0.0320      0.0451
 Ground to excited state transition velocity quadrupole moments (Au):
       state          XX          YY          ZZ          XY          XZ          YZ
         1        -0.0061      0.0006      0.0026     -0.0064     -0.0181      0.0053
 <0|del|b> * <b|rxdel|0> + <0|del|b> * <b|delr+rdel|0>
 Rotatory Strengths (R) in cgs (10**-40 erg-esu-cm/Gauss)
       state          XX          YY          ZZ    R(velocity)    E-M Angle
         1         0.7092     -0.8118     -0.2288     -0.1105       90.00
 1/2[<0|r|b>*<b|rxdel|0> + (<0|rxdel|b>*<b|r|0>)*]
 Rotatory Strengths (R) in cgs (10**-40 erg-esu-cm/Gauss)
       state          XX          YY          ZZ     R(length)
         1        -1.3318      0.8628     -0.0355     -0.1682
  1/2[<0|del|b>*<b|r|0> + (<0|r|b>*<b|del|0>)*] (Au)
       state          X           Y           Z        Dip. S.   Osc.(frdel)
         1        -0.0034     -0.0003      0.0000      0.0036      0.0024

 Excitation energies and oscillator strengths:
 
 Excited State   1:      Singlet-A      5.4367 eV  228.05 nm  f=0.0025  <S**2>=0.000
      20 -> 22        -0.45216
      20 -> 23         0.14764
      21 -> 22         0.25514
      21 -> 23         0.45594
 This state for optimization and/or second-order correction.
 Total Energy, E(TD-HF/TD-DFT) =  -232.016876506    
 Copying the excited state density for this state as the 1-particle RhoCI density.
 SavETr:  write IOETrn=   770 NScale= 10 NData=  16 NLR=1 NState=    1 LETran=      28.

 **********************************************************************

            Population analysis using the SCF Density.

 **********************************************************************

 Orbital symmetries:
       Occupied  (A) (A) (A) (A) (A) (A) (A) (A) (A) (A) (A) (A)
                 (A) (A) (A) (A) (A) (A) (A) (A) (A)
       Virtual   (A) (A) (A) (A) (A) (A) (A) (A) (A) (A) (A) (A)
                 (A) (A) (A) (A) (A) (A) (A) (A) (A) (A) (A) (A)
                 (A) (A) (A) (A) (A) (A) (A) (A) (A) (A) (A) (A)
                 (A) (A) (A) (A) (A) (A) (A) (A) (A) (A) (A) (A)
                 (A) (A) (A) (A) (A) (A) (A) (A) (A) (A) (A) (A)
                 (A) (A) (A) (A) (A) (A) (A) (A) (A) (A) (A) (A)
                 (A) (A) (A) (A) (A) (A) (A) (A) (A) (A) (A) (A)
                 (A) (A) (A) (A) (A) (A) (A) (A) (A) (A) (A) (A)
                 (A) (A) (A)
 The electronic state is 1-A.
 Alpha  occ. eigenvalues --  -10.19228 -10.19077 -10.18677 -10.17970 -10.17590
 Alpha  occ. eigenvalues --  -10.16981  -0.85616  -0.75211  -0.73802  -0.61022
 Alpha  occ. eigenvalues --   -0.59187  -0.52581  -0.46524  -0.43845  -0.42392
 Alpha  occ. eigenvalues --   -0.41165  -0.36308  -0.34460  -0.33191  -0.25215
 Alpha  occ. eigenvalues --   -0.23849
 Alpha virt. eigenvalues --   -0.00517   0.00875   0.09108   0.13931   0.15101
 Alpha virt. eigenvalues --    0.15816   0.17980   0.18608   0.20577   0.29488
 Alpha virt. eigenvalues --    0.30295   0.32759   0.34050   0.45543   0.51968
 Alpha virt. eigenvalues --    0.53176   0.54372   0.56714   0.58767   0.59423
 Alpha virt. eigenvalues --    0.60839   0.61757   0.62466   0.62845   0.64519
 Alpha virt. eigenvalues --    0.66957   0.67261   0.73963   0.79514   0.82523
 Alpha virt. eigenvalues --    0.83252   0.84626   0.86889   0.91900   0.93987
 Alpha virt. eigenvalues --    0.95354   0.96002   1.07133   1.07733   1.08565
 Alpha virt. eigenvalues --    1.10812   1.18212   1.24736   1.28486   1.30040
 Alpha virt. eigenvalues --    1.37420   1.42056   1.46698   1.51179   1.54828
 Alpha virt. eigenvalues --    1.68645   1.76453   1.77122   1.82654   1.88181
 Alpha virt. eigenvalues --    1.95303   1.98743   1.99347   2.01712   2.03160
 Alpha virt. eigenvalues --    2.04727   2.10020   2.10537   2.25408   2.26896
 Alpha virt. eigenvalues --    2.33518   2.35337   2.39664   2.41632   2.42859
 Alpha virt. eigenvalues --    2.43850   2.46531   2.47430   2.50343   2.52810
 Alpha virt. eigenvalues --    2.53899   2.54674   2.58646   2.67064   2.69390
 Alpha virt. eigenvalues --    2.79107   2.82262   2.87781   2.98498   3.09483
 Alpha virt. eigenvalues --    3.13457   3.23108   3.31522   3.37111   3.45557
 Alpha virt. eigenvalues --    3.50644   3.67779   4.00346   4.14103   4.16805
 Alpha virt. eigenvalues --    4.18266   4.44565   4.46269   4.82947
          Condensed to atoms (all electrons):
               1          2          3          4          5          6
     1  C    4.748582   0.549283  -0.033423  -0.044762  -0.037317   0.555572
     2  C    0.549283   4.815942   0.555098  -0.031881  -0.049711  -0.022417
     3  C   -0.033423   0.555098   4.772479   0.546819  -0.030787  -0.048741
     4  C   -0.044762  -0.031881   0.546819   4.840172   0.526654  -0.029208
     5  C   -0.037317  -0.049711  -0.030787   0.526654   4.862417   0.526878
     6  C    0.555572  -0.022417  -0.048741  -0.029208   0.526878   4.834711
     7  H    0.381541  -0.049667   0.007677   0.000598   0.006956  -0.055575
     8  H   -0.036154   0.004660   0.000745   0.004332  -0.045771   0.356022
     9  H    0.004117   0.000685   0.003939  -0.040659   0.368665  -0.036339
    10  H    0.000919   0.005984  -0.046199   0.367416  -0.040739   0.004712
    11  H    0.006279  -0.048492   0.376334  -0.045356   0.005065   0.000297
    12  H   -0.047119   0.365694  -0.044941   0.006483   0.000679   0.006417
               7          8          9         10         11         12
     1  C    0.381541  -0.036154   0.004117   0.000919   0.006279  -0.047119
     2  C   -0.049667   0.004660   0.000685   0.005984  -0.048492   0.365694
     3  C    0.007677   0.000745   0.003939  -0.046199   0.376334  -0.044941
     4  C    0.000598   0.004332  -0.040659   0.367416  -0.045356   0.006483
     5  C    0.006956  -0.045771   0.368665  -0.040739   0.005065   0.000679
     6  C   -0.055575   0.356022  -0.036339   0.004712   0.000297   0.006417
     7  H    0.651169  -0.006839  -0.000219   0.000025  -0.000305  -0.009359
     8  H   -0.006839   0.650589  -0.005682  -0.000196   0.000020  -0.000205
     9  H   -0.000219  -0.005682   0.618638  -0.004795  -0.000164   0.000014
    10  H    0.000025  -0.000196  -0.004795   0.637729  -0.006656  -0.000288
    11  H   -0.000305   0.000020  -0.000164  -0.006656   0.638328  -0.009255
    12  H   -0.009359  -0.000205   0.000014  -0.000288  -0.009255   0.654538
 Mulliken charges:
               1
     1  C   -0.047516
     2  C   -0.095177
     3  C   -0.058999
     4  C   -0.100606
     5  C   -0.092987
     6  C   -0.092327
     7  H    0.073999
     8  H    0.078479
     9  H    0.091800
    10  H    0.082088
    11  H    0.083904
    12  H    0.077342
 Sum of Mulliken charges =  -0.00000
 Mulliken charges with hydrogens summed into heavy atoms:
               1
     1  C    0.026483
     2  C   -0.017835
     3  C    0.024906
     4  C   -0.018518
     5  C   -0.001188
     6  C   -0.013849
 Electronic spatial extent (au):  <R**2>=            449.2618
 Charge=             -0.0000 electrons
 Dipole moment (field-independent basis, Debye):
    X=              0.1007    Y=             -0.0697    Z=             -0.1017  Tot=              0.1592
 Quadrupole moment (field-independent basis, Debye-Ang):
   XX=            -31.7456   YY=            -31.6863   ZZ=            -38.1323
   XY=             -0.1108   XZ=             -0.1044   YZ=             -0.7306
 Traceless Quadrupole moment (field-independent basis, Debye-Ang):
   XX=              2.1091   YY=              2.1684   ZZ=             -4.2775
   XY=             -0.1108   XZ=             -0.1044   YZ=             -0.7306
 Octapole moment (field-independent basis, Debye-Ang**2):
  XXX=              1.3047  YYY=             -0.3187  ZZZ=             -0.2142  XYY=             -0.2436
  XXY=              0.2446  XXZ=             -0.3045  XZZ=              0.3605  YZZ=             -0.5576
  YYZ=             -0.6437  XYZ=             -0.3078
 Hexadecapole moment (field-independent basis, Debye-Ang**3):
 XXXX=           -272.3125 YYYY=           -260.4209 ZZZZ=            -40.5150 XXXY=             -0.9679
 XXXZ=             -2.1943 YYYX=              0.6288 YYYZ=             -3.8876 ZZZX=             -0.0334
 ZZZY=             -0.7078 XXYY=            -89.3192 XXZZ=            -59.8698 YYZZ=            -57.5046
 XXYZ=             -1.6770 YYXZ=              1.3693 ZZXY=              0.2739
 N-N= 2.055772818043D+02 E-N=-9.487684054200D+02  KE= 2.303414721512D+02
 1\1\GINC-DESKTOP-PRN5QE3\SP\RB3LYP TD-FC\6-31G(d,p)\C6H6\SHOHEI\10-Nov
 -2023\0\\# TD=(NStates=1) B3LYP/6-31G(d,p)\\ABSSPCT\\0,1\C,0,-0.250174
 6686,1.3524462017,0.1005954387\C,0,1.0236448633,0.8554775209,-0.059285
 912\C,0,1.3219728674,-0.4551796903,0.0204697055\C,0,0.2783197665,-1.36
 63365461,-0.0045623567\C,0,-1.0922757948,-0.8839535521,-0.0319606608\C
 ,0,-1.2808033333,0.501016543,-0.0333029271\H,0,-0.4348914633,2.3062226
 343,0.0506216809\H,0,-2.4099743826,0.7660537228,-0.1189188155\H,0,-1.8
 599498592,-1.6569218123,0.1607310587\H,0,0.5437353789,-2.3736751671,0.
 1483610104\H,0,2.342910563,-0.670856221,0.1284457574\H,0,1.8072240271,
 1.6003824208,-0.2455260233\\Version=EM64L-G16RevB.01\State=1-A\HF=-232
 .2166728\RMSD=6.132e-09\PG=C01 [X(C6H6)]\\@


 AN AIRPLANE IS A COLLECTION OF SPARE PARTS
 FLYING IN CLOSE FORMATION.
 Job cpu time:       0 days  0 hours  3 minutes 39.1 seconds.
 Elapsed time:       0 days  0 hours  0 minutes 55.5 seconds.
 File lengths (MBytes):  RWF=    116 Int=      0 D2E=      0 Chk=      3 Scr=      1
 Normal termination of Gaussian 16 at Fri Nov 10 19:18:30 2023.
