 Entering Gaussian System, Link 0=g16
 Input=Geometry-172-.com
 Output=Geometry-172-.log
 Initial command:
 /home/shohei/gaussian/g16/l1.exe "/home/shohei/gaussian/scratch/Gau-5967.inp" -scrdir="/home/shohei/gaussian/scratch/"
 Entering Link 1 = /home/shohei/gaussian/g16/l1.exe PID=      5969.
  
 Copyright (c) 1988-2017, Gaussian, Inc.  All Rights Reserved.
  
 This is part of the Gaussian(R) 16 program.  It is based on
 the Gaussian(R) 09 system (copyright 2009, Gaussian, Inc.),
 the Gaussian(R) 03 system (copyright 2003, Gaussian, Inc.),
 the Gaussian(R) 98 system (copyright 1998, Gaussian, Inc.),
 the Gaussian(R) 94 system (copyright 1995, Gaussian, Inc.),
 the Gaussian 92(TM) system (copyright 1992, Gaussian, Inc.),
 the Gaussian 90(TM) system (copyright 1990, Gaussian, Inc.),
 the Gaussian 88(TM) system (copyright 1988, Gaussian, Inc.),
 the Gaussian 86(TM) system (copyright 1986, Carnegie Mellon
 University), and the Gaussian 82(TM) system (copyright 1983,
 Carnegie Mellon University). Gaussian is a federally registered
 trademark of Gaussian, Inc.
  
 This software contains proprietary and confidential information,
 including trade secrets, belonging to Gaussian, Inc.
  
 This software is provided under written license and may be
 used, copied, transmitted, or stored only in accord with that
 written license.
  
 The following legend is applicable only to US Government
 contracts under FAR:
  
                    RESTRICTED RIGHTS LEGEND
  
 Use, reproduction and disclosure by the US Government is
 subject to restrictions as set forth in subparagraphs (a)
 and (c) of the Commercial Computer Software - Restricted
 Rights clause in FAR 52.227-19.
  
 Gaussian, Inc.
 340 Quinnipiac St., Bldg. 40, Wallingford CT 06492
  
  
 ---------------------------------------------------------------
 Warning -- This program may not be used in any manner that
 competes with the business of Gaussian, Inc. or will provide
 assistance to any competitor of Gaussian, Inc.  The licensee
 of this program is prohibited from giving any competitor of
 Gaussian, Inc. access to this program.  By using this program,
 the user acknowledges that Gaussian, Inc. is engaged in the
 business of creating and licensing software in the field of
 computational chemistry and represents and warrants to the
 licensee that it is not a competitor of Gaussian, Inc. and that
 it will not use this program in any manner prohibited above.
 ---------------------------------------------------------------
  

 Cite this work as:
 Gaussian 16, Revision B.01,
 M. J. Frisch, G. W. Trucks, H. B. Schlegel, G. E. Scuseria, 
 M. A. Robb, J. R. Cheeseman, G. Scalmani, V. Barone, 
 G. A. Petersson, H. Nakatsuji, X. Li, M. Caricato, A. V. Marenich, 
 J. Bloino, B. G. Janesko, R. Gomperts, B. Mennucci, H. P. Hratchian, 
 J. V. Ortiz, A. F. Izmaylov, J. L. Sonnenberg, D. Williams-Young, 
 F. Ding, F. Lipparini, F. Egidi, J. Goings, B. Peng, A. Petrone, 
 T. Henderson, D. Ranasinghe, V. G. Zakrzewski, J. Gao, N. Rega, 
 G. Zheng, W. Liang, M. Hada, M. Ehara, K. Toyota, R. Fukuda, 
 J. Hasegawa, M. Ishida, T. Nakajima, Y. Honda, O. Kitao, H. Nakai, 
 T. Vreven, K. Throssell, J. A. Montgomery, Jr., J. E. Peralta, 
 F. Ogliaro, M. J. Bearpark, J. J. Heyd, E. N. Brothers, K. N. Kudin, 
 V. N. Staroverov, T. A. Keith, R. Kobayashi, J. Normand, 
 K. Raghavachari, A. P. Rendell, J. C. Burant, S. S. Iyengar, 
 J. Tomasi, M. Cossi, J. M. Millam, M. Klene, C. Adamo, R. Cammi, 
 J. W. Ochterski, R. L. Martin, K. Morokuma, O. Farkas, 
 J. B. Foresman, and D. J. Fox, Gaussian, Inc., Wallingford CT, 2016.
 
 ******************************************
 Gaussian 16:  EM64L-G16RevB.01 20-Dec-2017
                10-Nov-2023 
 ******************************************
 %nproc=4
 Will use up to    4 processors via shared memory.
 %Mem=2Gb
 ---------------------------------
 # TD=(NStates=1) B3LYP/6-31G(d,p)
 ---------------------------------
 1/38=1,172=1/1;
 2/12=2,17=6,18=5,40=1/2;
 3/5=1,6=6,7=101,11=9,25=1,30=1,74=-5/1,2,3,8;
 4//1;
 5/5=2,38=5/2;
 8/6=1,10=2,108=1/1;
 9/41=1,42=1,70=2/14;
 6/7=2,8=2,9=2,10=2/1;
 99/5=1,9=1/99;
 -------
 ABSSPCT
 -------
 Symbolic Z-matrix:
 Charge =  0 Multiplicity = 1
 6                    -0.29884   1.37315   0.03841 
 6                     1.11014   0.92517   0.01654 
 6                     1.31866  -0.50796  -0.04985 
 6                     0.27553  -1.35788   0.03328 
 6                    -1.03883  -0.89143  -0.0017 
 6                    -1.35817   0.46078  -0.00991 
 1                    -0.5316    2.48953  -0.15746 
 1                    -2.24542   0.85555  -0.09947 
 1                    -1.83238  -1.61763  -0.07863 
 1                     0.2996   -2.49094  -0.05237 
 1                     2.32498  -0.90411   0.09274 
 1                     1.87645   1.63071  -0.12845 
 
                          Input orientation:                          
 ---------------------------------------------------------------------
 Center     Atomic      Atomic             Coordinates (Angstroms)
 Number     Number       Type             X           Y           Z
 ---------------------------------------------------------------------
      1          6           0       -0.298843    1.373147    0.038405
      2          6           0        1.110140    0.925169    0.016544
      3          6           0        1.318663   -0.507959   -0.049847
      4          6           0        0.275535   -1.357882    0.033285
      5          6           0       -1.038832   -0.891427   -0.001695
      6          6           0       -1.358166    0.460778   -0.009911
      7          1           0       -0.531598    2.489533   -0.157459
      8          1           0       -2.245418    0.855550   -0.099469
      9          1           0       -1.832376   -1.617626   -0.078632
     10          1           0        0.299598   -2.490938   -0.052371
     11          1           0        2.324981   -0.904107    0.092738
     12          1           0        1.876449    1.630706   -0.128454
 ---------------------------------------------------------------------
                    Distance matrix (angstroms):
                    1          2          3          4          5
     1  C    0.000000
     2  C    1.478647   0.000000
     3  C    2.482474   1.449740   0.000000
     4  C    2.790780   2.430878   1.348108   0.000000
     5  C    2.382748   2.813971   2.388964   1.395121   0.000000
     6  C    1.398899   2.511752   2.847010   2.445070   1.389424
     7  H    1.157089   2.274383   3.524203   3.935791   3.422344
     8  H    2.018928   3.358284   3.816319   3.357396   2.125403
     9  H    3.363056   3.890150   3.340843   2.126800   1.078423
    10  H    3.911206   3.511626   2.229508   1.136545   2.086241
    11  H    3.474664   2.197247   1.090844   2.099923   3.365162
    12  H    2.196832   1.051682   2.211604   3.394221   3.856952
                    6          7          8          9         10
     6  C    0.000000
     7  H    2.195640   0.000000
     8  H    0.975234   2.368637   0.000000
     9  H    2.132922   4.308943   2.507516   0.000000
    10  H    3.385648   5.050448   4.204558   2.304057   0.000000
    11  H    3.929253   4.442909   4.901213   4.221622   2.577066
    12  H    3.441732   2.556778   4.194221   4.930468   4.413638
                   11         12
    11  H    0.000000
    12  H    2.583676   0.000000
 Stoichiometry    C6H6
 Framework group  C1[X(C6H6)]
 Deg. of freedom    30
 Full point group                 C1      NOp   1
 Largest Abelian subgroup         C1      NOp   1
 Largest concise Abelian subgroup C1      NOp   1
                         Standard orientation:                         
 ---------------------------------------------------------------------
 Center     Atomic      Atomic             Coordinates (Angstroms)
 Number     Number       Type             X           Y           Z
 ---------------------------------------------------------------------
      1          6           0        1.238750    0.663724   -0.051824
      2          6           0       -0.015384    1.446475   -0.022783
      3          6           0       -1.241573    0.676535    0.050698
      4          6           0       -1.213334   -0.668705   -0.032536
      5          6           0       -0.006118   -1.367421   -0.004469
      6          6           0        1.230682   -0.734314   -0.003396
      7          1           0        2.240927    1.209953    0.138254
      8          1           0        2.106828   -1.154195    0.081142
      9          1           0       -0.044477   -2.442393    0.072740
     10          1           0       -2.091346   -1.384662    0.058205
     11          1           0       -2.196233    1.186203   -0.086421
     12          1           0        0.026165    2.487324    0.121930
 ---------------------------------------------------------------------
 Rotational constants (GHZ):           5.7080154           5.5008622           2.8054426
 Standard basis: 6-31G(d,p) (6D, 7F)
 There are   120 symmetry adapted cartesian basis functions of A   symmetry.
 There are   120 symmetry adapted basis functions of A   symmetry.
   120 basis functions,   210 primitive gaussians,   120 cartesian basis functions
    21 alpha electrons       21 beta electrons
       nuclear repulsion energy       202.0341828075 Hartrees.
 NAtoms=   12 NActive=   12 NUniq=   12 SFac= 1.00D+00 NAtFMM=   60 NAOKFM=F Big=F
 Integral buffers will be    131072 words long.
 Regular integral format.
 Two-electron integral symmetry is turned on.
 One-electron integrals computed using PRISM.
 NBasis=   120 RedAO= T EigKep=  7.33D-04  NBF=   120
 NBsUse=   120 1.00D-06 EigRej= -1.00D+00 NBFU=   120
 ExpMin= 1.61D-01 ExpMax= 3.05D+03 ExpMxC= 4.57D+02 IAcc=3 IRadAn=         5 AccDes= 0.00D+00
 Harris functional with IExCor=  402 and IRadAn=       5 diagonalized for initial guess.
 HarFok:  IExCor=  402 AccDes= 0.00D+00 IRadAn=         5 IDoV= 1 UseB2=F ITyADJ=14
 ICtDFT=  3500011 ScaDFX=  1.000000  1.000000  1.000000  1.000000
 FoFCou: FMM=F IPFlag=           0 FMFlag=      100000 FMFlg1=           0
         NFxFlg=           0 DoJE=T BraDBF=F KetDBF=T FulRan=T
         wScrn=  0.000000 ICntrl=       500 IOpCl=  0 I1Cent=   200000004 NGrid=           0
         NMat0=    1 NMatS0=      1 NMatT0=    0 NMatD0=    1 NMtDS0=    0 NMtDT0=    0
 Petite list used in FoFCou.
 Keep R1 ints in memory in canonical form, NReq=30147728.
 Requested convergence on RMS density matrix=1.00D-08 within 128 cycles.
 Requested convergence on MAX density matrix=1.00D-06.
 Requested convergence on             energy=1.00D-06.
 No special actions if energy rises.
 Integral accuracy reduced to 1.0D-05 until final iterations.
 Initial convergence to 1.0D-05 achieved.  Increase integral accuracy.
 SCF Done:  E(RB3LYP) =  -232.223351487     A.U. after   13 cycles
            NFock= 13  Conv=0.73D-08     -V/T= 2.0102
 DoSCS=F DFT=T ScalE2(SS,OS)=  1.000000  1.000000
 ExpMin= 1.61D-01 ExpMax= 3.05D+03 ExpMxC= 4.57D+02 IAcc=3 IRadAn=         5 AccDes= 0.00D+00
 HarFok:  IExCor=  205 AccDes= 0.00D+00 IRadAn=         5 IDoV=-2 UseB2=F ITyADJ=14
 ICtDFT= 12500011 ScaDFX=  1.000000  1.000000  1.000000  1.000000
 Range of M.O.s used for correlation:     7   120
 NBasis=   120 NAE=    21 NBE=    21 NFC=     6 NFV=     0
 NROrb=    114 NOA=    15 NOB=    15 NVA=    99 NVB=    99
 Keep R1, R2, and R3 ints in memory in canonical form, NReq=84032236.
 Orbital symmetries:
       Occupied  (A) (A) (A) (A) (A) (A) (A) (A) (A) (A) (A) (A)
                 (A) (A) (A) (A) (A) (A) (A) (A) (A)
       Virtual   (A) (A) (A) (A) (A) (A) (A) (A) (A) (A) (A) (A)
                 (A) (A) (A) (A) (A) (A) (A) (A) (A) (A) (A) (A)
                 (A) (A) (A) (A) (A) (A) (A) (A) (A) (A) (A) (A)
                 (A) (A) (A) (A) (A) (A) (A) (A) (A) (A) (A) (A)
                 (A) (A) (A) (A) (A) (A) (A) (A) (A) (A) (A) (A)
                 (A) (A) (A) (A) (A) (A) (A) (A) (A) (A) (A) (A)
                 (A) (A) (A) (A) (A) (A) (A) (A) (A) (A) (A) (A)
                 (A) (A) (A) (A) (A) (A) (A) (A) (A) (A) (A) (A)
                 (A) (A) (A)
     4 initial guesses have been made.
 Convergence on wavefunction:    0.001000000000000
 Iteration     1 Dimension     4 NMult     0 NNew      4
 CISAX will form     4 AO SS matrices at one time.
 New state      1 was old state      2
 Iteration     2 Dimension     6 NMult     4 NNew      2
 Iteration     3 Dimension     8 NMult     6 NNew      2
 Iteration     4 Dimension    10 NMult     8 NNew      2
 Iteration     5 Dimension    12 NMult    10 NNew      2
 ***********************************************************************
 Excited states from <AA,BB:AA,BB> singles matrix:
 ***********************************************************************
 
 Ground to excited state transition densities written to RWF  633
 Ground to excited state transition electric dipole moments (Au):
       state          X           Y           Z        Dip. S.      Osc.
         1         0.0191      0.0591     -0.0010      0.0039      0.0005
 Ground to excited state transition velocity dipole moments (Au):
       state          X           Y           Z        Dip. S.      Osc.
         1        -0.0047     -0.0132      0.0000      0.0002      0.0007
 Ground to excited state transition magnetic dipole moments (Au):
       state          X           Y           Z
         1        -0.0072     -0.0035      0.0207
 Ground to excited state transition velocity quadrupole moments (Au):
       state          XX          YY          ZZ          XY          XZ          YZ
         1         0.0066     -0.0131      0.0016     -0.0048     -0.0032      0.0021
 <0|del|b> * <b|rxdel|0> + <0|del|b> * <b|delr+rdel|0>
 Rotatory Strengths (R) in cgs (10**-40 erg-esu-cm/Gauss)
       state          XX          YY          ZZ    R(velocity)    E-M Angle
         1         0.0067      0.0440      0.2398      0.0968       90.00
 1/2[<0|r|b>*<b|rxdel|0> + (<0|rxdel|b>*<b|r|0>)*]
 Rotatory Strengths (R) in cgs (10**-40 erg-esu-cm/Gauss)
       state          XX          YY          ZZ     R(length)
         1         0.0974      0.1471      0.0147      0.0864
  1/2[<0|del|b>*<b|r|0> + (<0|r|b>*<b|del|0>)*] (Au)
       state          X           Y           Z        Dip. S.   Osc.(frdel)
         1        -0.0001     -0.0008     -0.0000      0.0009      0.0006

 Excitation energies and oscillator strengths:
 
 Excited State   1:      Singlet-A      5.3348 eV  232.41 nm  f=0.0005  <S**2>=0.000
      20 -> 22        -0.48295
      21 -> 23         0.50354
 This state for optimization and/or second-order correction.
 Total Energy, E(TD-HF/TD-DFT) =  -232.027300673    
 Copying the excited state density for this state as the 1-particle RhoCI density.
 SavETr:  write IOETrn=   770 NScale= 10 NData=  16 NLR=1 NState=    1 LETran=      28.

 **********************************************************************

            Population analysis using the SCF Density.

 **********************************************************************

 Orbital symmetries:
       Occupied  (A) (A) (A) (A) (A) (A) (A) (A) (A) (A) (A) (A)
                 (A) (A) (A) (A) (A) (A) (A) (A) (A)
       Virtual   (A) (A) (A) (A) (A) (A) (A) (A) (A) (A) (A) (A)
                 (A) (A) (A) (A) (A) (A) (A) (A) (A) (A) (A) (A)
                 (A) (A) (A) (A) (A) (A) (A) (A) (A) (A) (A) (A)
                 (A) (A) (A) (A) (A) (A) (A) (A) (A) (A) (A) (A)
                 (A) (A) (A) (A) (A) (A) (A) (A) (A) (A) (A) (A)
                 (A) (A) (A) (A) (A) (A) (A) (A) (A) (A) (A) (A)
                 (A) (A) (A) (A) (A) (A) (A) (A) (A) (A) (A) (A)
                 (A) (A) (A) (A) (A) (A) (A) (A) (A) (A) (A) (A)
                 (A) (A) (A)
 The electronic state is 1-A.
 Alpha  occ. eigenvalues --  -10.20059 -10.19860 -10.19216 -10.18827 -10.18591
 Alpha  occ. eigenvalues --  -10.17862  -0.84359  -0.74853  -0.72957  -0.60909
 Alpha  occ. eigenvalues --   -0.58794  -0.51927  -0.46473  -0.43660  -0.42477
 Alpha  occ. eigenvalues --   -0.40331  -0.35926  -0.34421  -0.32842  -0.25338
 Alpha  occ. eigenvalues --   -0.23834
 Alpha virt. eigenvalues --   -0.01050   0.00272   0.08981   0.13015   0.14798
 Alpha virt. eigenvalues --    0.15893   0.17396   0.18101   0.20051   0.27793
 Alpha virt. eigenvalues --    0.28849   0.30873   0.33070   0.46467   0.50018
 Alpha virt. eigenvalues --    0.52857   0.54453   0.55463   0.58503   0.59843
 Alpha virt. eigenvalues --    0.60333   0.60730   0.61411   0.62810   0.63930
 Alpha virt. eigenvalues --    0.66204   0.66824   0.73784   0.79365   0.80096
 Alpha virt. eigenvalues --    0.82308   0.84414   0.89057   0.91475   0.93036
 Alpha virt. eigenvalues --    0.94359   0.96198   1.03678   1.06882   1.08859
 Alpha virt. eigenvalues --    1.10959   1.15739   1.23814   1.26395   1.32139
 Alpha virt. eigenvalues --    1.38264   1.40457   1.43525   1.50780   1.54037
 Alpha virt. eigenvalues --    1.72477   1.73845   1.77376   1.80571   1.89176
 Alpha virt. eigenvalues --    1.91265   1.94386   1.97441   1.98228   2.02355
 Alpha virt. eigenvalues --    2.03492   2.05287   2.07738   2.24083   2.26468
 Alpha virt. eigenvalues --    2.29172   2.34069   2.38014   2.39849   2.42048
 Alpha virt. eigenvalues --    2.42139   2.46036   2.46506   2.48133   2.50889
 Alpha virt. eigenvalues --    2.52259   2.54765   2.59120   2.63493   2.64545
 Alpha virt. eigenvalues --    2.76096   2.78601   2.82704   2.98315   3.06359
 Alpha virt. eigenvalues --    3.10857   3.22352   3.23793   3.32187   3.40469
 Alpha virt. eigenvalues --    3.47103   3.64197   3.95681   4.11244   4.15660
 Alpha virt. eigenvalues --    4.17817   4.43118   4.44376   4.80539
          Condensed to atoms (all electrons):
               1          2          3          4          5          6
     1  C    4.882231   0.512258  -0.024280  -0.045247  -0.027090   0.536522
     2  C    0.512258   4.876733   0.513560  -0.032518  -0.043346  -0.034664
     3  C   -0.024280   0.513560   4.835826   0.548632  -0.034117  -0.037985
     4  C   -0.045247  -0.032518   0.548632   4.798444   0.537807  -0.032062
     5  C   -0.027090  -0.043346  -0.034117   0.537807   4.817552   0.553809
     6  C    0.536522  -0.034664  -0.037985  -0.032062   0.553809   4.747361
     7  H    0.356418  -0.037893   0.003543   0.000527   0.004929  -0.038965
     8  H   -0.053008   0.006022   0.000109   0.006415  -0.048991   0.383834
     9  H    0.006070   0.000449   0.006695  -0.044465   0.367833  -0.047764
    10  H    0.000305   0.003996  -0.039484   0.365817  -0.043759   0.005260
    11  H    0.004067  -0.042753   0.365580  -0.041434   0.005383   0.000635
    12  H   -0.038735   0.374772  -0.038481   0.003916   0.000573   0.003864
               7          8          9         10         11         12
     1  C    0.356418  -0.053008   0.006070   0.000305   0.004067  -0.038735
     2  C   -0.037893   0.006022   0.000449   0.003996  -0.042753   0.374772
     3  C    0.003543   0.000109   0.006695  -0.039484   0.365580  -0.038481
     4  C    0.000527   0.006415  -0.044465   0.365817  -0.041434   0.003916
     5  C    0.004929  -0.048991   0.367833  -0.043759   0.005383   0.000573
     6  C   -0.038965   0.383834  -0.047764   0.005260   0.000635   0.003864
     7  H    0.644117  -0.007648  -0.000199   0.000012  -0.000127  -0.003957
     8  H   -0.007648   0.644353  -0.006838  -0.000219   0.000019  -0.000216
     9  H   -0.000199  -0.006838   0.647972  -0.009828  -0.000237   0.000012
    10  H    0.000012  -0.000219  -0.009828   0.639715  -0.006170  -0.000131
    11  H   -0.000127   0.000019  -0.000237  -0.006170   0.631451  -0.004181
    12  H   -0.003957  -0.000216   0.000012  -0.000131  -0.004181   0.608547
 Mulliken charges:
               1
     1  C   -0.109510
     2  C   -0.096615
     3  C   -0.099598
     4  C   -0.065832
     5  C   -0.090583
     6  C   -0.039846
     7  H    0.079244
     8  H    0.076168
     9  H    0.080301
    10  H    0.084487
    11  H    0.087767
    12  H    0.094017
 Sum of Mulliken charges =  -0.00000
 Mulliken charges with hydrogens summed into heavy atoms:
               1
     1  C   -0.030266
     2  C   -0.002598
     3  C   -0.011831
     4  C    0.018656
     5  C   -0.010282
     6  C    0.036322
 Electronic spatial extent (au):  <R**2>=            463.0579
 Charge=             -0.0000 electrons
 Dipole moment (field-independent basis, Debye):
    X=              0.0895    Y=             -0.1032    Z=              0.2453  Tot=              0.2808
 Quadrupole moment (field-independent basis, Debye-Ang):
   XX=            -31.6624   YY=            -31.5063   ZZ=            -38.5629
   XY=              0.0251   XZ=              0.4743   YZ=              0.0272
 Traceless Quadrupole moment (field-independent basis, Debye-Ang):
   XX=              2.2481   YY=              2.4042   ZZ=             -4.6524
   XY=              0.0251   XZ=              0.4743   YZ=              0.0272
 Octapole moment (field-independent basis, Debye-Ang**2):
  XXX=              1.7932  YYY=              0.1768  ZZZ=              0.3503  XYY=             -0.5928
  XXY=             -0.7108  XXZ=              0.8080  XZZ=              0.1165  YZZ=             -0.4120
  YYZ=              1.3750  XYZ=              0.5667
 Hexadecapole moment (field-independent basis, Debye-Ang**3):
 XXXX=           -279.8330 YYYY=           -269.0057 ZZZZ=            -40.5828 XXXY=             -1.8106
 XXXZ=              3.0266 YYYX=              1.0565 YYYZ=              0.8279 ZZZX=              0.5060
 ZZZY=              0.0356 XXYY=            -91.9081 XXZZ=            -61.7638 YYZZ=            -60.2253
 XXYZ=             -0.5198 YYXZ=              0.7940 ZZXY=             -0.5858
 N-N= 2.020341828075D+02 E-N=-9.413048257476D+02  KE= 2.298849227574D+02
 1\1\GINC-DESKTOP-PRN5QE3\SP\RB3LYP TD-FC\6-31G(d,p)\C6H6\SHOHEI\10-Nov
 -2023\0\\# TD=(NStates=1) B3LYP/6-31G(d,p)\\ABSSPCT\\0,1\C,0,-0.298842
 7933,1.3731471033,0.038405384\C,0,1.1101402911,0.9251690957,0.01654351
 66\C,0,1.3186631005,-0.5079593748,-0.0498473918\C,0,0.2755348718,-1.35
 78817353,0.0332848185\C,0,-1.0388316781,-0.8914266512,-0.0016950468\C,
 0,-1.3581664547,0.4607778108,-0.0099112254\H,0,-0.5315980401,2.4895331
 305,-0.1574592781\H,0,-2.2454176171,0.8555500827,-0.0994690746\H,0,-1.
 8323759215,-1.6176256294,-0.0786322615\H,0,0.2995980423,-2.4909384258,
 -0.052371343\H,0,2.3249813869,-0.9041071833,0.0927380759\H,0,1.8764487
 347,1.6307057232,-0.1284535268\\Version=EM64L-G16RevB.01\State=1-A\HF=
 -232.2233515\RMSD=7.313e-09\PG=C01 [X(C6H6)]\\@


 ADAM SMITH SAID, "THE REAL PRICE OF ANYTHING IS THE TOIL AND TROUBLE
 OF ACQUIRING IT."  BUT IN ALL UNDERTAKINGS WITH NATURE WE SHOULD FIRST
 READ CAREFULLY THE SMALL PRINT IN THE CONTRACT. THIS MIGHT DISCLOSE
 THAT THE REAL PRICE IS TO BE PAID BY THOSE WHO INHERIT THE DEPLETION
 AND DESPOILATION THAT FOLLOWS.
                               -- E. R. HARRISON IN "COSMOLOGY" (1980)
 Job cpu time:       0 days  0 hours  3 minutes  5.1 seconds.
 Elapsed time:       0 days  0 hours  0 minutes 46.9 seconds.
 File lengths (MBytes):  RWF=    116 Int=      0 D2E=      0 Chk=      3 Scr=      1
 Normal termination of Gaussian 16 at Fri Nov 10 18:28:59 2023.
