 Entering Gaussian System, Link 0=g16
 Input=Geometry-249-.com
 Output=Geometry-249-.log
 Initial command:
 /home/shohei/gaussian/g16/l1.exe "/home/shohei/gaussian/scratch/Gau-12474.inp" -scrdir="/home/shohei/gaussian/scratch/"
 Entering Link 1 = /home/shohei/gaussian/g16/l1.exe PID=     12476.
  
 Copyright (c) 1988-2017, Gaussian, Inc.  All Rights Reserved.
  
 This is part of the Gaussian(R) 16 program.  It is based on
 the Gaussian(R) 09 system (copyright 2009, Gaussian, Inc.),
 the Gaussian(R) 03 system (copyright 2003, Gaussian, Inc.),
 the Gaussian(R) 98 system (copyright 1998, Gaussian, Inc.),
 the Gaussian(R) 94 system (copyright 1995, Gaussian, Inc.),
 the Gaussian 92(TM) system (copyright 1992, Gaussian, Inc.),
 the Gaussian 90(TM) system (copyright 1990, Gaussian, Inc.),
 the Gaussian 88(TM) system (copyright 1988, Gaussian, Inc.),
 the Gaussian 86(TM) system (copyright 1986, Carnegie Mellon
 University), and the Gaussian 82(TM) system (copyright 1983,
 Carnegie Mellon University). Gaussian is a federally registered
 trademark of Gaussian, Inc.
  
 This software contains proprietary and confidential information,
 including trade secrets, belonging to Gaussian, Inc.
  
 This software is provided under written license and may be
 used, copied, transmitted, or stored only in accord with that
 written license.
  
 The following legend is applicable only to US Government
 contracts under FAR:
  
                    RESTRICTED RIGHTS LEGEND
  
 Use, reproduction and disclosure by the US Government is
 subject to restrictions as set forth in subparagraphs (a)
 and (c) of the Commercial Computer Software - Restricted
 Rights clause in FAR 52.227-19.
  
 Gaussian, Inc.
 340 Quinnipiac St., Bldg. 40, Wallingford CT 06492
  
  
 ---------------------------------------------------------------
 Warning -- This program may not be used in any manner that
 competes with the business of Gaussian, Inc. or will provide
 assistance to any competitor of Gaussian, Inc.  The licensee
 of this program is prohibited from giving any competitor of
 Gaussian, Inc. access to this program.  By using this program,
 the user acknowledges that Gaussian, Inc. is engaged in the
 business of creating and licensing software in the field of
 computational chemistry and represents and warrants to the
 licensee that it is not a competitor of Gaussian, Inc. and that
 it will not use this program in any manner prohibited above.
 ---------------------------------------------------------------
  

 Cite this work as:
 Gaussian 16, Revision B.01,
 M. J. Frisch, G. W. Trucks, H. B. Schlegel, G. E. Scuseria, 
 M. A. Robb, J. R. Cheeseman, G. Scalmani, V. Barone, 
 G. A. Petersson, H. Nakatsuji, X. Li, M. Caricato, A. V. Marenich, 
 J. Bloino, B. G. Janesko, R. Gomperts, B. Mennucci, H. P. Hratchian, 
 J. V. Ortiz, A. F. Izmaylov, J. L. Sonnenberg, D. Williams-Young, 
 F. Ding, F. Lipparini, F. Egidi, J. Goings, B. Peng, A. Petrone, 
 T. Henderson, D. Ranasinghe, V. G. Zakrzewski, J. Gao, N. Rega, 
 G. Zheng, W. Liang, M. Hada, M. Ehara, K. Toyota, R. Fukuda, 
 J. Hasegawa, M. Ishida, T. Nakajima, Y. Honda, O. Kitao, H. Nakai, 
 T. Vreven, K. Throssell, J. A. Montgomery, Jr., J. E. Peralta, 
 F. Ogliaro, M. J. Bearpark, J. J. Heyd, E. N. Brothers, K. N. Kudin, 
 V. N. Staroverov, T. A. Keith, R. Kobayashi, J. Normand, 
 K. Raghavachari, A. P. Rendell, J. C. Burant, S. S. Iyengar, 
 J. Tomasi, M. Cossi, J. M. Millam, M. Klene, C. Adamo, R. Cammi, 
 J. W. Ochterski, R. L. Martin, K. Morokuma, O. Farkas, 
 J. B. Foresman, and D. J. Fox, Gaussian, Inc., Wallingford CT, 2016.
 
 ******************************************
 Gaussian 16:  EM64L-G16RevB.01 20-Dec-2017
                10-Nov-2023 
 ******************************************
 %nproc=4
 Will use up to    4 processors via shared memory.
 %Mem=2Gb
 ---------------------------------
 # TD=(NStates=1) B3LYP/6-31G(d,p)
 ---------------------------------
 1/38=1,172=1/1;
 2/12=2,17=6,18=5,40=1/2;
 3/5=1,6=6,7=101,11=9,25=1,30=1,74=-5/1,2,3,8;
 4//1;
 5/5=2,38=5/2;
 8/6=1,10=2,108=1/1;
 9/41=1,42=1,70=2/14;
 6/7=2,8=2,9=2,10=2/1;
 99/5=1,9=1/99;
 -------
 ABSSPCT
 -------
 Symbolic Z-matrix:
 Charge =  0 Multiplicity = 1
 6                    -0.28119   1.36405   0.0134 
 6                     1.10684   0.86273  -0.03463 
 6                     1.33317  -0.42492   0.06115 
 6                     0.2421   -1.35243  -0.04932 
 6                    -1.0648   -0.90825   0.01885 
 6                    -1.35184   0.44385   0.00878 
 1                    -0.32889   2.56441  -0.16035 
 1                    -2.34104   0.78437   0.01951 
 1                    -1.99924  -1.50245  -0.00056 
 1                     0.55439  -2.404    -0.11599 
 1                     2.41538  -0.8111    0.04397 
 1                     1.92728   1.55639  -0.01653 
 
                          Input orientation:                          
 ---------------------------------------------------------------------
 Center     Atomic      Atomic             Coordinates (Angstroms)
 Number     Number       Type             X           Y           Z
 ---------------------------------------------------------------------
      1          6           0       -0.281194    1.364048    0.013399
      2          6           0        1.106841    0.862731   -0.034634
      3          6           0        1.333170   -0.424915    0.061146
      4          6           0        0.242101   -1.352425   -0.049324
      5          6           0       -1.064805   -0.908249    0.018853
      6          6           0       -1.351841    0.443850    0.008785
      7          1           0       -0.328887    2.564407   -0.160353
      8          1           0       -2.341037    0.784371    0.019506
      9          1           0       -1.999243   -1.502452   -0.000560
     10          1           0        0.554386   -2.403997   -0.115993
     11          1           0        2.415377   -0.811101    0.043972
     12          1           0        1.927284    1.556385   -0.016529
 ---------------------------------------------------------------------
                    Distance matrix (angstroms):
                    1          2          3          4          5
     1  C    0.000000
     2  C    1.476573   0.000000
     3  C    2.410154   1.310889   0.000000
     4  C    2.767128   2.378005   1.436284   0.000000
     5  C    2.403625   2.802726   2.446566   1.382007   0.000000
     6  C    1.411761   2.494486   2.822548   2.402213   1.382267
     7  H    1.213806   2.229983   3.427469   3.959789   3.554298
     8  H    2.139863   3.449193   3.868321   3.353093   2.119842
     9  H    3.341962   3.904229   3.502837   2.246888   1.107533
    10  H    3.861749   3.314112   2.134162   1.098986   2.208444
    11  H    3.464637   2.126066   1.149176   2.241621   3.481628
    12  H    2.217040   1.074529   2.069917   3.361859   3.876632
                    6          7          8          9         10
     6  C    0.000000
     7  H    2.360467   0.000000
     8  H    1.046221   2.692512   0.000000
     9  H    2.051172   4.399428   2.312312   0.000000
    10  H    3.429213   5.046502   4.309005   2.710559   0.000000
    11  H    3.970903   4.355088   5.016931   4.468648   2.454830
    12  H    3.462808   2.475299   4.337726   4.977385   4.192776
                   11         12
    11  H    0.000000
    12  H    2.418034   0.000000
 Stoichiometry    C6H6
 Framework group  C1[X(C6H6)]
 Deg. of freedom    30
 Full point group                 C1      NOp   1
 Largest Abelian subgroup         C1      NOp   1
 Largest concise Abelian subgroup C1      NOp   1
                         Standard orientation:                         
 ---------------------------------------------------------------------
 Center     Atomic      Atomic             Coordinates (Angstroms)
 Number     Number       Type             X           Y           Z
 ---------------------------------------------------------------------
      1          6           0        0.180747    1.379276   -0.018374
      2          6           0       -1.165485    0.774659    0.030255
      3          6           0       -1.293918   -0.526548   -0.063530
      4          6           0       -0.135959   -1.368853    0.048551
      5          6           0        1.133695   -0.827372   -0.020143
      6          6           0        1.317817    0.542554   -0.012164
      7          1           0        0.137625    2.580079    0.153494
      8          1           0        2.278480    0.956777   -0.023283
      9          1           0        2.110326   -1.349292    0.000334
     10          1           0       -0.367970   -2.440898    0.116832
     11          1           0       -2.343881   -0.993318   -0.045898
     12          1           0       -2.035957    1.404356    0.010944
 ---------------------------------------------------------------------
 Rotational constants (GHZ):           5.8642653           5.4344372           2.8249350
 Standard basis: 6-31G(d,p) (6D, 7F)
 There are   120 symmetry adapted cartesian basis functions of A   symmetry.
 There are   120 symmetry adapted basis functions of A   symmetry.
   120 basis functions,   210 primitive gaussians,   120 cartesian basis functions
    21 alpha electrons       21 beta electrons
       nuclear repulsion energy       202.3317998907 Hartrees.
 NAtoms=   12 NActive=   12 NUniq=   12 SFac= 1.00D+00 NAtFMM=   60 NAOKFM=F Big=F
 Integral buffers will be    131072 words long.
 Regular integral format.
 Two-electron integral symmetry is turned on.
 One-electron integrals computed using PRISM.
 NBasis=   120 RedAO= T EigKep=  7.57D-04  NBF=   120
 NBsUse=   120 1.00D-06 EigRej= -1.00D+00 NBFU=   120
 ExpMin= 1.61D-01 ExpMax= 3.05D+03 ExpMxC= 4.57D+02 IAcc=3 IRadAn=         5 AccDes= 0.00D+00
 Harris functional with IExCor=  402 and IRadAn=       5 diagonalized for initial guess.
 HarFok:  IExCor=  402 AccDes= 0.00D+00 IRadAn=         5 IDoV= 1 UseB2=F ITyADJ=14
 ICtDFT=  3500011 ScaDFX=  1.000000  1.000000  1.000000  1.000000
 FoFCou: FMM=F IPFlag=           0 FMFlag=      100000 FMFlg1=           0
         NFxFlg=           0 DoJE=T BraDBF=F KetDBF=T FulRan=T
         wScrn=  0.000000 ICntrl=       500 IOpCl=  0 I1Cent=   200000004 NGrid=           0
         NMat0=    1 NMatS0=      1 NMatT0=    0 NMatD0=    1 NMtDS0=    0 NMtDT0=    0
 Petite list used in FoFCou.
 Keep R1 ints in memory in canonical form, NReq=30147728.
 Requested convergence on RMS density matrix=1.00D-08 within 128 cycles.
 Requested convergence on MAX density matrix=1.00D-06.
 Requested convergence on             energy=1.00D-06.
 No special actions if energy rises.
 Integral accuracy reduced to 1.0D-05 until final iterations.
 Initial convergence to 1.0D-05 achieved.  Increase integral accuracy.
 SCF Done:  E(RB3LYP) =  -232.224555560     A.U. after   12 cycles
            NFock= 12  Conv=0.82D-08     -V/T= 2.0107
 DoSCS=F DFT=T ScalE2(SS,OS)=  1.000000  1.000000
 ExpMin= 1.61D-01 ExpMax= 3.05D+03 ExpMxC= 4.57D+02 IAcc=3 IRadAn=         5 AccDes= 0.00D+00
 HarFok:  IExCor=  205 AccDes= 0.00D+00 IRadAn=         5 IDoV=-2 UseB2=F ITyADJ=14
 ICtDFT= 12500011 ScaDFX=  1.000000  1.000000  1.000000  1.000000
 Range of M.O.s used for correlation:     7   120
 NBasis=   120 NAE=    21 NBE=    21 NFC=     6 NFV=     0
 NROrb=    114 NOA=    15 NOB=    15 NVA=    99 NVB=    99
 Keep R1, R2, and R3 ints in memory in canonical form, NReq=84032236.
 Orbital symmetries:
       Occupied  (A) (A) (A) (A) (A) (A) (A) (A) (A) (A) (A) (A)
                 (A) (A) (A) (A) (A) (A) (A) (A) (A)
       Virtual   (A) (A) (A) (A) (A) (A) (A) (A) (A) (A) (A) (A)
                 (A) (A) (A) (A) (A) (A) (A) (A) (A) (A) (A) (A)
                 (A) (A) (A) (A) (A) (A) (A) (A) (A) (A) (A) (A)
                 (A) (A) (A) (A) (A) (A) (A) (A) (A) (A) (A) (A)
                 (A) (A) (A) (A) (A) (A) (A) (A) (A) (A) (A) (A)
                 (A) (A) (A) (A) (A) (A) (A) (A) (A) (A) (A) (A)
                 (A) (A) (A) (A) (A) (A) (A) (A) (A) (A) (A) (A)
                 (A) (A) (A) (A) (A) (A) (A) (A) (A) (A) (A) (A)
                 (A) (A) (A)
     4 initial guesses have been made.
 Convergence on wavefunction:    0.001000000000000
 Iteration     1 Dimension     4 NMult     0 NNew      4
 CISAX will form     4 AO SS matrices at one time.
 New state      1 was old state      2
 Iteration     2 Dimension     6 NMult     4 NNew      2
 Iteration     3 Dimension     8 NMult     6 NNew      2
 Iteration     4 Dimension    10 NMult     8 NNew      2
 Iteration     5 Dimension    12 NMult    10 NNew      2
 ***********************************************************************
 Excited states from <AA,BB:AA,BB> singles matrix:
 ***********************************************************************
 
 Ground to excited state transition densities written to RWF  633
 Ground to excited state transition electric dipole moments (Au):
       state          X           Y           Z        Dip. S.      Osc.
         1         0.0206     -0.0364      0.0027      0.0018      0.0002
 Ground to excited state transition velocity dipole moments (Au):
       state          X           Y           Z        Dip. S.      Osc.
         1        -0.0057      0.0080     -0.0005      0.0001      0.0003
 Ground to excited state transition magnetic dipole moments (Au):
       state          X           Y           Z
         1         0.0005      0.0171      0.0102
 Ground to excited state transition velocity quadrupole moments (Au):
       state          XX          YY          ZZ          XY          XZ          YZ
         1        -0.0179     -0.0092      0.0099     -0.0021     -0.0134      0.0072
 <0|del|b> * <b|rxdel|0> + <0|del|b> * <b|delr+rdel|0>
 Rotatory Strengths (R) in cgs (10**-40 erg-esu-cm/Gauss)
       state          XX          YY          ZZ    R(velocity)    E-M Angle
         1         0.4175     -0.0869      0.1177      0.1494       48.78
 1/2[<0|r|b>*<b|rxdel|0> + (<0|rxdel|b>*<b|r|0>)*]
 Rotatory Strengths (R) in cgs (10**-40 erg-esu-cm/Gauss)
       state          XX          YY          ZZ     R(length)
         1        -0.0078      0.4408     -0.0194      0.1379
  1/2[<0|del|b>*<b|r|0> + (<0|r|b>*<b|del|0>)*] (Au)
       state          X           Y           Z        Dip. S.   Osc.(frdel)
         1        -0.0001     -0.0003     -0.0000      0.0004      0.0003

 Excitation energies and oscillator strengths:
 
 Excited State   1:      Singlet-A      5.5133 eV  224.88 nm  f=0.0002  <S**2>=0.000
      20 -> 22         0.49441
      21 -> 23         0.50270
 This state for optimization and/or second-order correction.
 Total Energy, E(TD-HF/TD-DFT) =  -232.021945275    
 Copying the excited state density for this state as the 1-particle RhoCI density.
 SavETr:  write IOETrn=   770 NScale= 10 NData=  16 NLR=1 NState=    1 LETran=      28.

 **********************************************************************

            Population analysis using the SCF Density.

 **********************************************************************

 Orbital symmetries:
       Occupied  (A) (A) (A) (A) (A) (A) (A) (A) (A) (A) (A) (A)
                 (A) (A) (A) (A) (A) (A) (A) (A) (A)
       Virtual   (A) (A) (A) (A) (A) (A) (A) (A) (A) (A) (A) (A)
                 (A) (A) (A) (A) (A) (A) (A) (A) (A) (A) (A) (A)
                 (A) (A) (A) (A) (A) (A) (A) (A) (A) (A) (A) (A)
                 (A) (A) (A) (A) (A) (A) (A) (A) (A) (A) (A) (A)
                 (A) (A) (A) (A) (A) (A) (A) (A) (A) (A) (A) (A)
                 (A) (A) (A) (A) (A) (A) (A) (A) (A) (A) (A) (A)
                 (A) (A) (A) (A) (A) (A) (A) (A) (A) (A) (A) (A)
                 (A) (A) (A) (A) (A) (A) (A) (A) (A) (A) (A) (A)
                 (A) (A) (A)
 The electronic state is 1-A.
 Alpha  occ. eigenvalues --  -10.20648 -10.19387 -10.19131 -10.18892 -10.18778
 Alpha  occ. eigenvalues --  -10.18420  -0.84805  -0.75457  -0.72525  -0.60285
 Alpha  occ. eigenvalues --   -0.58746  -0.51445  -0.45247  -0.43730  -0.42555
 Alpha  occ. eigenvalues --   -0.40250  -0.36243  -0.33377  -0.33207  -0.25898
 Alpha  occ. eigenvalues --   -0.23763
 Alpha virt. eigenvalues --   -0.01003   0.01083   0.07830   0.12529   0.13377
 Alpha virt. eigenvalues --    0.15656   0.16621   0.18361   0.19050   0.27585
 Alpha virt. eigenvalues --    0.29614   0.31493   0.33616   0.46281   0.51693
 Alpha virt. eigenvalues --    0.52492   0.53350   0.55627   0.57516   0.59276
 Alpha virt. eigenvalues --    0.59893   0.60426   0.61102   0.62247   0.66004
 Alpha virt. eigenvalues --    0.66460   0.67037   0.74138   0.77276   0.79353
 Alpha virt. eigenvalues --    0.81268   0.83700   0.84761   0.90902   0.91924
 Alpha virt. eigenvalues --    0.94200   0.95851   1.04834   1.07168   1.11147
 Alpha virt. eigenvalues --    1.13397   1.16220   1.25910   1.28494   1.33891
 Alpha virt. eigenvalues --    1.38315   1.42171   1.43748   1.45792   1.49684
 Alpha virt. eigenvalues --    1.70875   1.73557   1.78342   1.80777   1.86424
 Alpha virt. eigenvalues --    1.89241   1.95395   1.96369   1.98915   2.00089
 Alpha virt. eigenvalues --    2.02990   2.04202   2.11120   2.23492   2.29653
 Alpha virt. eigenvalues --    2.30208   2.32546   2.35154   2.36725   2.38732
 Alpha virt. eigenvalues --    2.40027   2.43923   2.45777   2.46052   2.48998
 Alpha virt. eigenvalues --    2.50481   2.54320   2.56011   2.60540   2.64790
 Alpha virt. eigenvalues --    2.74678   2.76966   2.79514   2.95975   3.00856
 Alpha virt. eigenvalues --    3.07285   3.17131   3.20071   3.22537   3.34361
 Alpha virt. eigenvalues --    3.48653   3.50962   3.89794   4.12979   4.15881
 Alpha virt. eigenvalues --    4.17805   4.43139   4.45291   4.79338
          Condensed to atoms (all electrons):
               1          2          3          4          5          6
     1  C    4.884264   0.504534  -0.038095  -0.048366  -0.035817   0.556052
     2  C    0.504534   4.796656   0.591814  -0.038612  -0.037974  -0.035286
     3  C   -0.038095   0.591814   4.789334   0.516311  -0.032325  -0.035041
     4  C   -0.048366  -0.038612   0.516311   4.841542   0.563364  -0.035785
     5  C   -0.035817  -0.037974  -0.032325   0.563364   4.790960   0.531394
     6  C    0.556052  -0.035286  -0.035041  -0.035785   0.531394   4.797466
     7  H    0.347431  -0.039445   0.004229   0.000613   0.003403  -0.030507
     8  H   -0.043015   0.004107   0.000533   0.005477  -0.043281   0.374960
     9  H    0.005668   0.000409   0.003878  -0.037910   0.368683  -0.049508
    10  H    0.000782   0.005544  -0.044130   0.365661  -0.038823   0.004283
    11  H    0.005269  -0.042413   0.361345  -0.038393   0.003930   0.000356
    12  H   -0.039676   0.368225  -0.043937   0.005823   0.000651   0.003953
               7          8          9         10         11         12
     1  C    0.347431  -0.043015   0.005668   0.000782   0.005269  -0.039676
     2  C   -0.039445   0.004107   0.000409   0.005544  -0.042413   0.368225
     3  C    0.004229   0.000533   0.003878  -0.044130   0.361345  -0.043937
     4  C    0.000613   0.005477  -0.037910   0.365661  -0.038393   0.005823
     5  C    0.003403  -0.043281   0.368683  -0.038823   0.003930   0.000651
     6  C   -0.030507   0.374960  -0.049508   0.004283   0.000356   0.003953
     7  H    0.646617  -0.003846  -0.000163   0.000010  -0.000188  -0.005219
     8  H   -0.003846   0.624936  -0.009396  -0.000174   0.000015  -0.000156
     9  H   -0.000163  -0.009396   0.635920  -0.004720  -0.000108   0.000017
    10  H    0.000010  -0.000174  -0.004720   0.631372  -0.006209  -0.000278
    11  H   -0.000188   0.000015  -0.000108  -0.006209   0.644601  -0.008914
    12  H   -0.005219  -0.000156   0.000017  -0.000278  -0.008914   0.634308
 Mulliken charges:
               1
     1  C   -0.099029
     2  C   -0.077559
     3  C   -0.073916
     4  C   -0.099724
     5  C   -0.074164
     6  C   -0.082337
     7  H    0.077065
     8  H    0.089840
     9  H    0.087231
    10  H    0.086681
    11  H    0.080710
    12  H    0.085202
 Sum of Mulliken charges =  -0.00000
 Mulliken charges with hydrogens summed into heavy atoms:
               1
     1  C   -0.021964
     2  C    0.007643
     3  C    0.006794
     4  C   -0.013044
     5  C    0.013067
     6  C    0.007503
 Electronic spatial extent (au):  <R**2>=            462.4766
 Charge=             -0.0000 electrons
 Dipole moment (field-independent basis, Debye):
    X=             -0.0150    Y=             -0.0283    Z=              0.1241  Tot=              0.1282
 Quadrupole moment (field-independent basis, Debye-Ang):
   XX=            -30.9395   YY=            -32.4196   ZZ=            -38.6667
   XY=             -0.0230   XZ=             -0.0196   YZ=              0.1049
 Traceless Quadrupole moment (field-independent basis, Debye-Ang):
   XX=              3.0691   YY=              1.5890   ZZ=             -4.6581
   XY=             -0.0230   XZ=             -0.0196   YZ=              0.1049
 Octapole moment (field-independent basis, Debye-Ang**2):
  XXX=              1.5354  YYY=              0.2758  ZZZ=              0.1177  XYY=             -1.7017
  XXY=             -0.2626  XXZ=             -0.0980  XZZ=              0.0300  YZZ=             -0.2544
  YYZ=              1.2537  XYZ=              0.0287
 Hexadecapole moment (field-independent basis, Debye-Ang**3):
 XXXX=           -276.5040 YYYY=           -270.9185 ZZZZ=            -40.5535 XXXY=             -0.6714
 XXXZ=             -0.0073 YYYX=              0.3721 YYYZ=              0.9855 ZZZX=             -0.0368
 ZZZY=              0.0159 XXYY=            -93.3032 XXZZ=            -62.5522 YYZZ=            -60.3045
 XXYZ=             -0.0703 YYXZ=             -0.1188 ZZXY=             -0.1292
 N-N= 2.023317998907D+02 E-N=-9.418257952747D+02  KE= 2.297728160041D+02
 1\1\GINC-DESKTOP-PRN5QE3\SP\RB3LYP TD-FC\6-31G(d,p)\C6H6\SHOHEI\10-Nov
 -2023\0\\# TD=(NStates=1) B3LYP/6-31G(d,p)\\ABSSPCT\\0,1\C,0,-0.281194
 2248,1.3640483524,0.0133986855\C,0,1.1068408449,0.8627305307,-0.034634
 1986\C,0,1.3331701749,-0.4249154442,0.0611458548\C,0,0.2421007062,-1.3
 524251158,-0.049323871\C,0,-1.064804764,-0.9082490942,0.0188528468\C,0
 ,-1.3518405193,0.4438497463,0.0087849383\H,0,-0.3288872855,2.564407202
 1,-0.1603525474\H,0,-2.3410367066,0.7843710301,0.019505699\H,0,-1.9992
 427456,-1.5024522906,-0.0005595377\H,0,0.5543863927,-2.4039972296,-0.1
 15993293\H,0,2.4153769347,-0.8111012219,0.0439718069\H,0,1.9272844916,
 1.5563853565,-0.016529024\\Version=EM64L-G16RevB.01\State=1-A\HF=-232.
 2245556\RMSD=8.231e-09\PG=C01 [X(C6H6)]\\@


 "ANNA, YOU MUSN'T SPEAK OF OXIDIZED MURIATIC ACID
 ANYMORE, FROM NOW ON YOU MUST SAY CHLORINE."
   -- JENS JACOB BERZELIUS, IN 1820, TO HIS COOK, WHO HAD
 COMPLAINED OF THE SMELL OF THE FLASK SHE WAS CLEANING.
 Job cpu time:       0 days  0 hours  3 minutes  7.8 seconds.
 Elapsed time:       0 days  0 hours  0 minutes 47.3 seconds.
 File lengths (MBytes):  RWF=    116 Int=      0 D2E=      0 Chk=      3 Scr=      1
 Normal termination of Gaussian 16 at Fri Nov 10 19:33:11 2023.
