 Entering Gaussian System, Link 0=g16
 Input=Geometry-333-.com
 Output=Geometry-333-.log
 Initial command:
 /home/shohei/gaussian/g16/l1.exe "/home/shohei/gaussian/scratch/Gau-31008.inp" -scrdir="/home/shohei/gaussian/scratch/"
 Entering Link 1 = /home/shohei/gaussian/g16/l1.exe PID=     31010.
  
 Copyright (c) 1988-2017, Gaussian, Inc.  All Rights Reserved.
  
 This is part of the Gaussian(R) 16 program.  It is based on
 the Gaussian(R) 09 system (copyright 2009, Gaussian, Inc.),
 the Gaussian(R) 03 system (copyright 2003, Gaussian, Inc.),
 the Gaussian(R) 98 system (copyright 1998, Gaussian, Inc.),
 the Gaussian(R) 94 system (copyright 1995, Gaussian, Inc.),
 the Gaussian 92(TM) system (copyright 1992, Gaussian, Inc.),
 the Gaussian 90(TM) system (copyright 1990, Gaussian, Inc.),
 the Gaussian 88(TM) system (copyright 1988, Gaussian, Inc.),
 the Gaussian 86(TM) system (copyright 1986, Carnegie Mellon
 University), and the Gaussian 82(TM) system (copyright 1983,
 Carnegie Mellon University). Gaussian is a federally registered
 trademark of Gaussian, Inc.
  
 This software contains proprietary and confidential information,
 including trade secrets, belonging to Gaussian, Inc.
  
 This software is provided under written license and may be
 used, copied, transmitted, or stored only in accord with that
 written license.
  
 The following legend is applicable only to US Government
 contracts under FAR:
  
                    RESTRICTED RIGHTS LEGEND
  
 Use, reproduction and disclosure by the US Government is
 subject to restrictions as set forth in subparagraphs (a)
 and (c) of the Commercial Computer Software - Restricted
 Rights clause in FAR 52.227-19.
  
 Gaussian, Inc.
 340 Quinnipiac St., Bldg. 40, Wallingford CT 06492
  
  
 ---------------------------------------------------------------
 Warning -- This program may not be used in any manner that
 competes with the business of Gaussian, Inc. or will provide
 assistance to any competitor of Gaussian, Inc.  The licensee
 of this program is prohibited from giving any competitor of
 Gaussian, Inc. access to this program.  By using this program,
 the user acknowledges that Gaussian, Inc. is engaged in the
 business of creating and licensing software in the field of
 computational chemistry and represents and warrants to the
 licensee that it is not a competitor of Gaussian, Inc. and that
 it will not use this program in any manner prohibited above.
 ---------------------------------------------------------------
  

 Cite this work as:
 Gaussian 16, Revision B.01,
 M. J. Frisch, G. W. Trucks, H. B. Schlegel, G. E. Scuseria, 
 M. A. Robb, J. R. Cheeseman, G. Scalmani, V. Barone, 
 G. A. Petersson, H. Nakatsuji, X. Li, M. Caricato, A. V. Marenich, 
 J. Bloino, B. G. Janesko, R. Gomperts, B. Mennucci, H. P. Hratchian, 
 J. V. Ortiz, A. F. Izmaylov, J. L. Sonnenberg, D. Williams-Young, 
 F. Ding, F. Lipparini, F. Egidi, J. Goings, B. Peng, A. Petrone, 
 T. Henderson, D. Ranasinghe, V. G. Zakrzewski, J. Gao, N. Rega, 
 G. Zheng, W. Liang, M. Hada, M. Ehara, K. Toyota, R. Fukuda, 
 J. Hasegawa, M. Ishida, T. Nakajima, Y. Honda, O. Kitao, H. Nakai, 
 T. Vreven, K. Throssell, J. A. Montgomery, Jr., J. E. Peralta, 
 F. Ogliaro, M. J. Bearpark, J. J. Heyd, E. N. Brothers, K. N. Kudin, 
 V. N. Staroverov, T. A. Keith, R. Kobayashi, J. Normand, 
 K. Raghavachari, A. P. Rendell, J. C. Burant, S. S. Iyengar, 
 J. Tomasi, M. Cossi, J. M. Millam, M. Klene, C. Adamo, R. Cammi, 
 J. W. Ochterski, R. L. Martin, K. Morokuma, O. Farkas, 
 J. B. Foresman, and D. J. Fox, Gaussian, Inc., Wallingford CT, 2016.
 
 ******************************************
 Gaussian 16:  EM64L-G16RevB.01 20-Dec-2017
                10-Nov-2023 
 ******************************************
 %nproc=4
 Will use up to    4 processors via shared memory.
 %Mem=2Gb
 ---------------------------------
 # TD=(NStates=1) B3LYP/6-31G(d,p)
 ---------------------------------
 1/38=1,172=1/1;
 2/12=2,17=6,18=5,40=1/2;
 3/5=1,6=6,7=101,11=9,25=1,30=1,74=-5/1,2,3,8;
 4//1;
 5/5=2,38=5/2;
 8/6=1,10=2,108=1/1;
 9/41=1,42=1,70=2/14;
 6/7=2,8=2,9=2,10=2/1;
 99/5=1,9=1/99;
 -------
 ABSSPCT
 -------
 Symbolic Z-matrix:
 Charge =  0 Multiplicity = 1
 6                    -0.2583    1.36039   0.0107 
 6                     1.04124   0.90999  -0.05859 
 6                     1.34072  -0.5165    0.018 
 6                     0.25732  -1.34304  -0.02601 
 6                    -1.04834  -0.89176   0.01889 
 6                    -1.31786   0.47122   0.07093 
 1                    -0.47325   2.40676  -0.14095 
 1                    -2.29991   0.9186   -0.27894 
 1                    -1.99512  -1.52385  -0.23355 
 1                     0.6046   -2.516    -0.08761 
 1                     2.31788  -0.90198   0.24889 
 1                     1.664     1.82521   0.06945 
 
                          Input orientation:                          
 ---------------------------------------------------------------------
 Center     Atomic      Atomic             Coordinates (Angstroms)
 Number     Number       Type             X           Y           Z
 ---------------------------------------------------------------------
      1          6           0       -0.258299    1.360395    0.010703
      2          6           0        1.041245    0.909992   -0.058592
      3          6           0        1.340722   -0.516495    0.017996
      4          6           0        0.257321   -1.343040   -0.026008
      5          6           0       -1.048338   -0.891759    0.018892
      6          6           0       -1.317858    0.471224    0.070929
      7          1           0       -0.473255    2.406759   -0.140952
      8          1           0       -2.299909    0.918599   -0.278942
      9          1           0       -1.995125   -1.523848   -0.233554
     10          1           0        0.604596   -2.516002   -0.087613
     11          1           0        2.317877   -0.901976    0.248893
     12          1           0        1.664001    1.825209    0.069455
 ---------------------------------------------------------------------
                    Distance matrix (angstroms):
                    1          2          3          4          5
     1  C    0.000000
     2  C    1.377126   0.000000
     3  C    2.465692   1.459595   0.000000
     4  C    2.752411   2.385738   1.363403   0.000000
     5  C    2.386719   2.760193   2.418353   1.382178   0.000000
     6  C    1.384528   2.403051   2.836624   2.404607   1.390349
     7  H    1.078927   2.130916   3.444008   3.822034   3.352088
     8  H    2.108851   3.348423   3.924520   3.423216   2.220930
     9  H    3.375660   3.895347   3.493695   2.269202   1.166049
    10  H    3.972494   3.453830   2.133322   1.224841   2.319849
    11  H    3.436821   2.237759   1.075519   2.125088   3.374079
    12  H    1.978570   1.114381   2.364474   3.467804   3.839434
                    6          7          8          9         10
     6  C    0.000000
     7  H    2.122391   0.000000
     8  H    1.134451   2.360154   0.000000
     9  H    2.128782   4.215961   2.461808   0.000000
    10  H    3.555908   5.039661   4.502137   2.786434   0.000000
    11  H    3.890491   4.346277   4.991698   4.384229   2.377740
    12  H    3.274868   2.224934   4.081165   4.969628   4.471367
                   11         12
    11  H    0.000000
    12  H    2.810212   0.000000
 Stoichiometry    C6H6
 Framework group  C1[X(C6H6)]
 Deg. of freedom    30
 Full point group                 C1      NOp   1
 Largest Abelian subgroup         C1      NOp   1
 Largest concise Abelian subgroup C1      NOp   1
                         Standard orientation:                         
 ---------------------------------------------------------------------
 Center     Atomic      Atomic             Coordinates (Angstroms)
 Number     Number       Type             X           Y           Z
 ---------------------------------------------------------------------
      1          6           0       -1.239617   -0.607974   -0.021829
      2          6           0       -0.101343   -1.377749    0.069037
      3          6           0        1.221050   -0.763899   -0.000840
      4          6           0        1.233481    0.599169    0.026738
      5          6           0        0.090580    1.373610   -0.039836
      6          6           0       -1.161643    0.772256   -0.098000
      7          1           0       -2.207824   -1.060866    0.124967
      8          1           0       -2.111821    1.294749    0.235378
      9          1           0        0.026900    2.513346    0.198109
     10          1           0        2.380023    1.024555    0.095477
     11          1           0        2.117461   -1.318105   -0.215419
     12          1           0       -0.459783   -2.426160   -0.050130
 ---------------------------------------------------------------------
 Rotational constants (GHZ):           5.8375417           5.5382432           2.8531288
 Standard basis: 6-31G(d,p) (6D, 7F)
 There are   120 symmetry adapted cartesian basis functions of A   symmetry.
 There are   120 symmetry adapted basis functions of A   symmetry.
   120 basis functions,   210 primitive gaussians,   120 cartesian basis functions
    21 alpha electrons       21 beta electrons
       nuclear repulsion energy       202.8314099646 Hartrees.
 NAtoms=   12 NActive=   12 NUniq=   12 SFac= 1.00D+00 NAtFMM=   60 NAOKFM=F Big=F
 Integral buffers will be    131072 words long.
 Regular integral format.
 Two-electron integral symmetry is turned on.
 One-electron integrals computed using PRISM.
 NBasis=   120 RedAO= T EigKep=  7.55D-04  NBF=   120
 NBsUse=   120 1.00D-06 EigRej= -1.00D+00 NBFU=   120
 ExpMin= 1.61D-01 ExpMax= 3.05D+03 ExpMxC= 4.57D+02 IAcc=3 IRadAn=         5 AccDes= 0.00D+00
 Harris functional with IExCor=  402 and IRadAn=       5 diagonalized for initial guess.
 HarFok:  IExCor=  402 AccDes= 0.00D+00 IRadAn=         5 IDoV= 1 UseB2=F ITyADJ=14
 ICtDFT=  3500011 ScaDFX=  1.000000  1.000000  1.000000  1.000000
 FoFCou: FMM=F IPFlag=           0 FMFlag=      100000 FMFlg1=           0
         NFxFlg=           0 DoJE=T BraDBF=F KetDBF=T FulRan=T
         wScrn=  0.000000 ICntrl=       500 IOpCl=  0 I1Cent=   200000004 NGrid=           0
         NMat0=    1 NMatS0=      1 NMatT0=    0 NMatD0=    1 NMtDS0=    0 NMtDT0=    0
 Petite list used in FoFCou.
 Keep R1 ints in memory in canonical form, NReq=30147728.
 Requested convergence on RMS density matrix=1.00D-08 within 128 cycles.
 Requested convergence on MAX density matrix=1.00D-06.
 Requested convergence on             energy=1.00D-06.
 No special actions if energy rises.
 Integral accuracy reduced to 1.0D-05 until final iterations.
 Initial convergence to 1.0D-05 achieved.  Increase integral accuracy.
 SCF Done:  E(RB3LYP) =  -232.211035798     A.U. after   13 cycles
            NFock= 13  Conv=0.26D-08     -V/T= 2.0108
 DoSCS=F DFT=T ScalE2(SS,OS)=  1.000000  1.000000
 ExpMin= 1.61D-01 ExpMax= 3.05D+03 ExpMxC= 4.57D+02 IAcc=3 IRadAn=         5 AccDes= 0.00D+00
 HarFok:  IExCor=  205 AccDes= 0.00D+00 IRadAn=         5 IDoV=-2 UseB2=F ITyADJ=14
 ICtDFT= 12500011 ScaDFX=  1.000000  1.000000  1.000000  1.000000
 Range of M.O.s used for correlation:     7   120
 NBasis=   120 NAE=    21 NBE=    21 NFC=     6 NFV=     0
 NROrb=    114 NOA=    15 NOB=    15 NVA=    99 NVB=    99
 Keep R1, R2, and R3 ints in memory in canonical form, NReq=84032236.
 Orbital symmetries:
       Occupied  (A) (A) (A) (A) (A) (A) (A) (A) (A) (A) (A) (A)
                 (A) (A) (A) (A) (A) (A) (A) (A) (A)
       Virtual   (A) (A) (A) (A) (A) (A) (A) (A) (A) (A) (A) (A)
                 (A) (A) (A) (A) (A) (A) (A) (A) (A) (A) (A) (A)
                 (A) (A) (A) (A) (A) (A) (A) (A) (A) (A) (A) (A)
                 (A) (A) (A) (A) (A) (A) (A) (A) (A) (A) (A) (A)
                 (A) (A) (A) (A) (A) (A) (A) (A) (A) (A) (A) (A)
                 (A) (A) (A) (A) (A) (A) (A) (A) (A) (A) (A) (A)
                 (A) (A) (A) (A) (A) (A) (A) (A) (A) (A) (A) (A)
                 (A) (A) (A) (A) (A) (A) (A) (A) (A) (A) (A) (A)
                 (A) (A) (A)
     4 initial guesses have been made.
 Convergence on wavefunction:    0.001000000000000
 Iteration     1 Dimension     4 NMult     0 NNew      4
 CISAX will form     4 AO SS matrices at one time.
 New state      1 was old state      2
 Iteration     2 Dimension     6 NMult     4 NNew      2
 Iteration     3 Dimension     8 NMult     6 NNew      2
 Iteration     4 Dimension    10 NMult     8 NNew      2
 Iteration     5 Dimension    12 NMult    10 NNew      2
 ***********************************************************************
 Excited states from <AA,BB:AA,BB> singles matrix:
 ***********************************************************************
 
 Ground to excited state transition densities written to RWF  633
 Ground to excited state transition electric dipole moments (Au):
       state          X           Y           Z        Dip. S.      Osc.
         1         0.0347      0.1487     -0.0205      0.0237      0.0031
 Ground to excited state transition velocity dipole moments (Au):
       state          X           Y           Z        Dip. S.      Osc.
         1        -0.0078     -0.0304      0.0043      0.0010      0.0034
 Ground to excited state transition magnetic dipole moments (Au):
       state          X           Y           Z
         1        -0.0213      0.0038      0.0047
 Ground to excited state transition velocity quadrupole moments (Au):
       state          XX          YY          ZZ          XY          XZ          YZ
         1        -0.0062      0.0059     -0.0032      0.0081     -0.0112     -0.0133
 <0|del|b> * <b|rxdel|0> + <0|del|b> * <b|delr+rdel|0>
 Rotatory Strengths (R) in cgs (10**-40 erg-esu-cm/Gauss)
       state          XX          YY          ZZ    R(velocity)    E-M Angle
         1        -0.7218      0.4601      0.5167      0.0850       90.00
 1/2[<0|r|b>*<b|rxdel|0> + (<0|rxdel|b>*<b|r|0>)*]
 Rotatory Strengths (R) in cgs (10**-40 erg-esu-cm/Gauss)
       state          XX          YY          ZZ     R(length)
         1         0.5226     -0.4020      0.0689      0.0632
  1/2[<0|del|b>*<b|r|0> + (<0|r|b>*<b|del|0>)*] (Au)
       state          X           Y           Z        Dip. S.   Osc.(frdel)
         1        -0.0003     -0.0045     -0.0001      0.0049      0.0033

 Excitation energies and oscillator strengths:
 
 Excited State   1:      Singlet-A      5.3636 eV  231.16 nm  f=0.0031  <S**2>=0.000
      20 -> 22         0.52035
      20 -> 23         0.11093
      21 -> 22        -0.16942
      21 -> 23         0.43317
 This state for optimization and/or second-order correction.
 Total Energy, E(TD-HF/TD-DFT) =  -232.013927916    
 Copying the excited state density for this state as the 1-particle RhoCI density.
 SavETr:  write IOETrn=   770 NScale= 10 NData=  16 NLR=1 NState=    1 LETran=      28.

 **********************************************************************

            Population analysis using the SCF Density.

 **********************************************************************

 Orbital symmetries:
       Occupied  (A) (A) (A) (A) (A) (A) (A) (A) (A) (A) (A) (A)
                 (A) (A) (A) (A) (A) (A) (A) (A) (A)
       Virtual   (A) (A) (A) (A) (A) (A) (A) (A) (A) (A) (A) (A)
                 (A) (A) (A) (A) (A) (A) (A) (A) (A) (A) (A) (A)
                 (A) (A) (A) (A) (A) (A) (A) (A) (A) (A) (A) (A)
                 (A) (A) (A) (A) (A) (A) (A) (A) (A) (A) (A) (A)
                 (A) (A) (A) (A) (A) (A) (A) (A) (A) (A) (A) (A)
                 (A) (A) (A) (A) (A) (A) (A) (A) (A) (A) (A) (A)
                 (A) (A) (A) (A) (A) (A) (A) (A) (A) (A) (A) (A)
                 (A) (A) (A) (A) (A) (A) (A) (A) (A) (A) (A) (A)
                 (A) (A) (A)
 The electronic state is 1-A.
 Alpha  occ. eigenvalues --  -10.20128 -10.19850 -10.19732 -10.19398 -10.18997
 Alpha  occ. eigenvalues --  -10.18160  -0.85238  -0.74882  -0.73614  -0.60568
 Alpha  occ. eigenvalues --   -0.58359  -0.51298  -0.44882  -0.44092  -0.41858
 Alpha  occ. eigenvalues --   -0.40468  -0.35833  -0.34164  -0.32440  -0.25230
 Alpha  occ. eigenvalues --   -0.24431
 Alpha virt. eigenvalues --   -0.01430   0.00600   0.06932   0.12334   0.13055
 Alpha virt. eigenvalues --    0.14298   0.16687   0.17112   0.20446   0.28981
 Alpha virt. eigenvalues --    0.29344   0.31542   0.32802   0.46444   0.51415
 Alpha virt. eigenvalues --    0.52359   0.55044   0.56240   0.58853   0.59560
 Alpha virt. eigenvalues --    0.60073   0.61929   0.62435   0.62911   0.64880
 Alpha virt. eigenvalues --    0.66522   0.66770   0.73117   0.76505   0.79365
 Alpha virt. eigenvalues --    0.80847   0.82655   0.83176   0.89466   0.92095
 Alpha virt. eigenvalues --    0.94889   0.95492   1.00911   1.06949   1.07836
 Alpha virt. eigenvalues --    1.13016   1.15781   1.22071   1.24485   1.27248
 Alpha virt. eigenvalues --    1.38010   1.43081   1.43512   1.55214   1.56412
 Alpha virt. eigenvalues --    1.67870   1.70810   1.74136   1.80334   1.84697
 Alpha virt. eigenvalues --    1.85591   1.94377   1.98089   2.02174   2.02283
 Alpha virt. eigenvalues --    2.06652   2.10163   2.11343   2.20732   2.24808
 Alpha virt. eigenvalues --    2.27743   2.29513   2.32123   2.34215   2.37188
 Alpha virt. eigenvalues --    2.40830   2.41715   2.45854   2.47621   2.50586
 Alpha virt. eigenvalues --    2.52395   2.53855   2.59142   2.59956   2.67780
 Alpha virt. eigenvalues --    2.71542   2.74261   2.78001   2.93570   2.95251
 Alpha virt. eigenvalues --    3.08296   3.10826   3.18112   3.23636   3.33526
 Alpha virt. eigenvalues --    3.42349   3.49925   3.83584   4.13314   4.16796
 Alpha virt. eigenvalues --    4.17447   4.43329   4.44987   4.80410
          Condensed to atoms (all electrons):
               1          2          3          4          5          6
     1  C    4.821183   0.561493  -0.039498  -0.035353  -0.049047   0.541688
     2  C    0.561493   4.840252   0.514178  -0.035368  -0.042157  -0.041132
     3  C   -0.039498   0.514178   4.840704   0.551500  -0.042644  -0.037481
     4  C   -0.035353  -0.035368   0.551500   4.796101   0.551517  -0.039749
     5  C   -0.049047  -0.042157  -0.042644   0.551517   4.827948   0.544531
     6  C    0.541688  -0.041132  -0.037481  -0.039749   0.544531   4.830015
     7  H    0.370496  -0.043425   0.004750   0.000453   0.005605  -0.042100
     8  H   -0.042993   0.005770   0.000625   0.003778  -0.034783   0.362280
     9  H    0.005085   0.000475   0.003745  -0.033787   0.358524  -0.043138
    10  H    0.000289   0.004812  -0.047245   0.351911  -0.032047   0.003970
    11  H    0.003555  -0.037427   0.373588  -0.039927   0.004732   0.000445
    12  H   -0.051678   0.359790  -0.032822   0.003826   0.000742   0.007338
               7          8          9         10         11         12
     1  C    0.370496  -0.042993   0.005085   0.000289   0.003555  -0.051678
     2  C   -0.043425   0.005770   0.000475   0.004812  -0.037427   0.359790
     3  C    0.004750   0.000625   0.003745  -0.047245   0.373588  -0.032822
     4  C    0.000453   0.003778  -0.033787   0.351911  -0.039927   0.003826
     5  C    0.005605  -0.034783   0.358524  -0.032047   0.004732   0.000742
     6  C   -0.042100   0.362280  -0.043138   0.003970   0.000445   0.007338
     7  H    0.637636  -0.007412  -0.000253   0.000014  -0.000146  -0.010727
     8  H   -0.007412   0.632183  -0.006659  -0.000099   0.000014  -0.000354
     9  H   -0.000253  -0.006659   0.633849  -0.004514  -0.000136   0.000014
    10  H    0.000014  -0.000099  -0.004514   0.658962  -0.008232  -0.000129
    11  H   -0.000146   0.000014  -0.000136  -0.008232   0.606554  -0.002816
    12  H   -0.010727  -0.000354   0.000014  -0.000129  -0.002816   0.642104
 Mulliken charges:
               1
     1  C   -0.085220
     2  C   -0.087262
     3  C   -0.089400
     4  C   -0.074901
     5  C   -0.092920
     6  C   -0.086666
     7  H    0.085109
     8  H    0.087650
     9  H    0.086794
    10  H    0.072308
    11  H    0.099797
    12  H    0.084713
 Sum of Mulliken charges =  -0.00000
 Mulliken charges with hydrogens summed into heavy atoms:
               1
     1  C   -0.000112
     2  C   -0.002549
     3  C    0.010397
     4  C   -0.002594
     5  C   -0.006126
     6  C    0.000984
 Electronic spatial extent (au):  <R**2>=            460.0081
 Charge=             -0.0000 electrons
 Dipole moment (field-independent basis, Debye):
    X=             -0.1274    Y=             -0.1300    Z=              0.1967  Tot=              0.2680
 Quadrupole moment (field-independent basis, Debye-Ang):
   XX=            -31.3720   YY=            -32.8617   ZZ=            -38.5278
   XY=             -0.1344   XZ=             -0.8698   YZ=              0.9912
 Traceless Quadrupole moment (field-independent basis, Debye-Ang):
   XX=              2.8818   YY=              1.3921   ZZ=             -4.2740
   XY=             -0.1344   XZ=             -0.8698   YZ=              0.9912
 Octapole moment (field-independent basis, Debye-Ang**2):
  XXX=              0.7104  YYY=             -0.1149  ZZZ=              0.1618  XYY=             -2.0066
  XXY=             -1.8323  XXZ=              0.9731  XZZ=             -0.3138  YZZ=             -0.1429
  YYZ=              0.8228  XYZ=              0.2069
 Hexadecapole moment (field-independent basis, Debye-Ang**3):
 XXXX=           -277.7026 YYYY=           -274.9135 ZZZZ=            -41.3917 XXXY=             -2.2371
 XXXZ=             -5.2122 YYYX=              0.7934 YYYZ=              5.3569 ZZZX=             -0.9586
 ZZZY=              0.9122 XXYY=            -93.2341 XXZZ=            -62.1164 YYZZ=            -59.8991
 XXYZ=              2.5944 YYXZ=             -1.7263 ZZXY=             -0.4739
 N-N= 2.028314099646D+02 E-N=-9.427390461596D+02  KE= 2.297198277985D+02
 1\1\GINC-DESKTOP-PRN5QE3\SP\RB3LYP TD-FC\6-31G(d,p)\C6H6\SHOHEI\10-Nov
 -2023\0\\# TD=(NStates=1) B3LYP/6-31G(d,p)\\ABSSPCT\\0,1\C,0,-0.258298
 5516,1.3603948177,0.0107033737\C,0,1.0412446538,0.9099917511,-0.058592
 1769\C,0,1.3407217418,-0.5164951584,0.0179960604\C,0,0.2573209796,-1.3
 430395041,-0.0260076267\C,0,-1.0483378646,-0.8917590748,0.0188922089\C
 ,0,-1.3178575954,0.471223986,0.0709285344\H,0,-0.4732546865,2.40675890
 36,-0.1409517989\H,0,-2.2999090104,0.9185985293,-0.2789422229\H,0,-1.9
 951247516,-1.5238476358,-0.2335535458\H,0,0.6045958939,-2.5160021501,-
 0.0876125299\H,0,2.3178771764,-0.9019761051,0.248892544\H,0,1.66400102
 36,1.8252094177,0.0694545283\\Version=EM64L-G16RevB.01\State=1-A\HF=-2
 32.2110358\RMSD=2.604e-09\PG=C01 [X(C6H6)]\\@


 GOD GAVE US TWO ENDS... ONE TO SIT ON...    
 AND THE OTHER TO THINK WITH...              
 YOUR SUCCESS DEPENDS UPON WHICH END YOU     
 USE THE MOST...                             
                                             
 IT'S A CASE OF HEADS YOU WIN TAILS YOU LOSE.
          SOURCE UNKNOWN(IT'S JUST AS WELL.) 
 Job cpu time:       0 days  0 hours  3 minutes  7.6 seconds.
 Elapsed time:       0 days  0 hours  0 minutes 47.5 seconds.
 File lengths (MBytes):  RWF=    116 Int=      0 D2E=      0 Chk=      3 Scr=      1
 Normal termination of Gaussian 16 at Fri Nov 10 17:16:32 2023.
