 Entering Gaussian System, Link 0=g16
 Input=Geometry-463-.com
 Output=Geometry-463-.log
 Initial command:
 /home/shohei/gaussian/g16/l1.exe "/home/shohei/gaussian/scratch/Gau-9597.inp" -scrdir="/home/shohei/gaussian/scratch/"
 Entering Link 1 = /home/shohei/gaussian/g16/l1.exe PID=      9599.
  
 Copyright (c) 1988-2017, Gaussian, Inc.  All Rights Reserved.
  
 This is part of the Gaussian(R) 16 program.  It is based on
 the Gaussian(R) 09 system (copyright 2009, Gaussian, Inc.),
 the Gaussian(R) 03 system (copyright 2003, Gaussian, Inc.),
 the Gaussian(R) 98 system (copyright 1998, Gaussian, Inc.),
 the Gaussian(R) 94 system (copyright 1995, Gaussian, Inc.),
 the Gaussian 92(TM) system (copyright 1992, Gaussian, Inc.),
 the Gaussian 90(TM) system (copyright 1990, Gaussian, Inc.),
 the Gaussian 88(TM) system (copyright 1988, Gaussian, Inc.),
 the Gaussian 86(TM) system (copyright 1986, Carnegie Mellon
 University), and the Gaussian 82(TM) system (copyright 1983,
 Carnegie Mellon University). Gaussian is a federally registered
 trademark of Gaussian, Inc.
  
 This software contains proprietary and confidential information,
 including trade secrets, belonging to Gaussian, Inc.
  
 This software is provided under written license and may be
 used, copied, transmitted, or stored only in accord with that
 written license.
  
 The following legend is applicable only to US Government
 contracts under FAR:
  
                    RESTRICTED RIGHTS LEGEND
  
 Use, reproduction and disclosure by the US Government is
 subject to restrictions as set forth in subparagraphs (a)
 and (c) of the Commercial Computer Software - Restricted
 Rights clause in FAR 52.227-19.
  
 Gaussian, Inc.
 340 Quinnipiac St., Bldg. 40, Wallingford CT 06492
  
  
 ---------------------------------------------------------------
 Warning -- This program may not be used in any manner that
 competes with the business of Gaussian, Inc. or will provide
 assistance to any competitor of Gaussian, Inc.  The licensee
 of this program is prohibited from giving any competitor of
 Gaussian, Inc. access to this program.  By using this program,
 the user acknowledges that Gaussian, Inc. is engaged in the
 business of creating and licensing software in the field of
 computational chemistry and represents and warrants to the
 licensee that it is not a competitor of Gaussian, Inc. and that
 it will not use this program in any manner prohibited above.
 ---------------------------------------------------------------
  

 Cite this work as:
 Gaussian 16, Revision B.01,
 M. J. Frisch, G. W. Trucks, H. B. Schlegel, G. E. Scuseria, 
 M. A. Robb, J. R. Cheeseman, G. Scalmani, V. Barone, 
 G. A. Petersson, H. Nakatsuji, X. Li, M. Caricato, A. V. Marenich, 
 J. Bloino, B. G. Janesko, R. Gomperts, B. Mennucci, H. P. Hratchian, 
 J. V. Ortiz, A. F. Izmaylov, J. L. Sonnenberg, D. Williams-Young, 
 F. Ding, F. Lipparini, F. Egidi, J. Goings, B. Peng, A. Petrone, 
 T. Henderson, D. Ranasinghe, V. G. Zakrzewski, J. Gao, N. Rega, 
 G. Zheng, W. Liang, M. Hada, M. Ehara, K. Toyota, R. Fukuda, 
 J. Hasegawa, M. Ishida, T. Nakajima, Y. Honda, O. Kitao, H. Nakai, 
 T. Vreven, K. Throssell, J. A. Montgomery, Jr., J. E. Peralta, 
 F. Ogliaro, M. J. Bearpark, J. J. Heyd, E. N. Brothers, K. N. Kudin, 
 V. N. Staroverov, T. A. Keith, R. Kobayashi, J. Normand, 
 K. Raghavachari, A. P. Rendell, J. C. Burant, S. S. Iyengar, 
 J. Tomasi, M. Cossi, J. M. Millam, M. Klene, C. Adamo, R. Cammi, 
 J. W. Ochterski, R. L. Martin, K. Morokuma, O. Farkas, 
 J. B. Foresman, and D. J. Fox, Gaussian, Inc., Wallingford CT, 2016.
 
 ******************************************
 Gaussian 16:  EM64L-G16RevB.01 20-Dec-2017
                10-Nov-2023 
 ******************************************
 %nproc=4
 Will use up to    4 processors via shared memory.
 %Mem=2Gb
 ---------------------------------
 # TD=(NStates=1) B3LYP/6-31G(d,p)
 ---------------------------------
 1/38=1,172=1/1;
 2/12=2,17=6,18=5,40=1/2;
 3/5=1,6=6,7=101,11=9,25=1,30=1,74=-5/1,2,3,8;
 4//1;
 5/5=2,38=5/2;
 8/6=1,10=2,108=1/1;
 9/41=1,42=1,70=2/14;
 6/7=2,8=2,9=2,10=2/1;
 99/5=1,9=1/99;
 -------
 ABSSPCT
 -------
 Symbolic Z-matrix:
 Charge =  0 Multiplicity = 1
 6                    -0.23136   1.4254   -0.02488 
 6                     1.03008   0.8966    0.07313 
 6                     1.3128   -0.48142  -0.05288 
 6                     0.23247  -1.343     0.02277 
 6                    -1.03812  -0.95348  -0.0189 
 6                    -1.34549   0.45226   0.00899 
 1                    -0.25282   2.39223  -0.15128 
 1                    -2.3208    1.01994  -0.07208 
 1                    -1.72644  -1.75448   0.17348 
 1                     0.46805  -2.45492  -0.01329 
 1                     2.43982  -0.79095  -0.11184 
 1                     1.85579   1.58542   0.02596 
 
                          Input orientation:                          
 ---------------------------------------------------------------------
 Center     Atomic      Atomic             Coordinates (Angstroms)
 Number     Number       Type             X           Y           Z
 ---------------------------------------------------------------------
      1          6           0       -0.231364    1.425402   -0.024882
      2          6           0        1.030079    0.896598    0.073126
      3          6           0        1.312797   -0.481424   -0.052885
      4          6           0        0.232471   -1.342996    0.022766
      5          6           0       -1.038116   -0.953476   -0.018900
      6          6           0       -1.345495    0.452261    0.008988
      7          1           0       -0.252818    2.392233   -0.151279
      8          1           0       -2.320796    1.019942   -0.072076
      9          1           0       -1.726444   -1.754478    0.173480
     10          1           0        0.468054   -2.454917   -0.013288
     11          1           0        2.439821   -0.790954   -0.111836
     12          1           0        1.855793    1.585418    0.025962
 ---------------------------------------------------------------------
                    Distance matrix (angstroms):
                    1          2          3          4          5
     1  C    0.000000
     2  C    1.371306   0.000000
     3  C    2.453814   1.412357   0.000000
     4  C    2.807390   2.377918   1.383883   0.000000
     5  C    2.511960   2.776450   2.398078   1.329606   0.000000
     6  C    1.479674   2.417623   2.818175   2.390212   1.439221
     7  H    0.975294   1.983206   3.273948   3.770640   3.439184
     8  H    2.128931   3.356287   3.931598   3.480179   2.354246
     9  H    3.519410   3.825794   3.302861   2.007332   1.073504
    10  H    3.942866   3.399410   2.147052   1.137175   2.126712
    11  H    3.472034   2.206675   1.170242   2.279311   3.482972
    12  H    2.093900   1.076337   2.138434   3.348252   3.850027
                    6          7          8          9         10
     6  C    0.000000
     7  H    2.232290   0.000000
     8  H    1.131391   2.483141   0.000000
     9  H    2.245413   4.412738   2.847975   0.000000
    10  H    3.426534   4.902403   4.455983   2.311129   0.000000
    11  H    3.986075   4.169477   5.093564   4.285737   2.581927
    12  H    3.395965   2.264642   4.215836   4.899907   4.272197
                   11         12
    11  H    0.000000
    12  H    2.450963   0.000000
 Stoichiometry    C6H6
 Framework group  C1[X(C6H6)]
 Deg. of freedom    30
 Full point group                 C1      NOp   1
 Largest Abelian subgroup         C1      NOp   1
 Largest concise Abelian subgroup C1      NOp   1
                         Standard orientation:                         
 ---------------------------------------------------------------------
 Center     Atomic      Atomic             Coordinates (Angstroms)
 Number     Number       Type             X           Y           Z
 ---------------------------------------------------------------------
      1          6           0       -1.412906   -0.305686   -0.015629
      2          6           0       -0.945469    0.979654    0.083774
      3          6           0        0.416474    1.329391   -0.048698
      4          6           0        1.329913    0.291980    0.018681
      5          6           0        1.002350   -0.995899   -0.025162
      6          6           0       -0.386621   -1.371310    0.009256
      7          1           0       -2.378238   -0.373705   -0.136893
      8          1           0       -0.906695   -2.372790   -0.072032
      9          1           0        1.836896   -1.645082    0.160589
     10          1           0        2.428861    0.581429   -0.022563
     11          1           0        0.670560    2.470302   -0.105523
     12          1           0       -1.673837    1.771062    0.043095
 ---------------------------------------------------------------------
 Rotational constants (GHZ):           5.7617220           5.5423176           2.8309166
 Standard basis: 6-31G(d,p) (6D, 7F)
 There are   120 symmetry adapted cartesian basis functions of A   symmetry.
 There are   120 symmetry adapted basis functions of A   symmetry.
   120 basis functions,   210 primitive gaussians,   120 cartesian basis functions
    21 alpha electrons       21 beta electrons
       nuclear repulsion energy       202.7152004711 Hartrees.
 NAtoms=   12 NActive=   12 NUniq=   12 SFac= 1.00D+00 NAtFMM=   60 NAOKFM=F Big=F
 Integral buffers will be    131072 words long.
 Regular integral format.
 Two-electron integral symmetry is turned on.
 One-electron integrals computed using PRISM.
 NBasis=   120 RedAO= T EigKep=  8.94D-04  NBF=   120
 NBsUse=   120 1.00D-06 EigRej= -1.00D+00 NBFU=   120
 ExpMin= 1.61D-01 ExpMax= 3.05D+03 ExpMxC= 4.57D+02 IAcc=3 IRadAn=         5 AccDes= 0.00D+00
 Harris functional with IExCor=  402 and IRadAn=       5 diagonalized for initial guess.
 HarFok:  IExCor=  402 AccDes= 0.00D+00 IRadAn=         5 IDoV= 1 UseB2=F ITyADJ=14
 ICtDFT=  3500011 ScaDFX=  1.000000  1.000000  1.000000  1.000000
 FoFCou: FMM=F IPFlag=           0 FMFlag=      100000 FMFlg1=           0
         NFxFlg=           0 DoJE=T BraDBF=F KetDBF=T FulRan=T
         wScrn=  0.000000 ICntrl=       500 IOpCl=  0 I1Cent=   200000004 NGrid=           0
         NMat0=    1 NMatS0=      1 NMatT0=    0 NMatD0=    1 NMtDS0=    0 NMtDT0=    0
 Petite list used in FoFCou.
 Keep R1 ints in memory in canonical form, NReq=30147728.
 Requested convergence on RMS density matrix=1.00D-08 within 128 cycles.
 Requested convergence on MAX density matrix=1.00D-06.
 Requested convergence on             energy=1.00D-06.
 No special actions if energy rises.
 Integral accuracy reduced to 1.0D-05 until final iterations.
 Initial convergence to 1.0D-05 achieved.  Increase integral accuracy.
 SCF Done:  E(RB3LYP) =  -232.211190257     A.U. after   14 cycles
            NFock= 14  Conv=0.23D-08     -V/T= 2.0100
 DoSCS=F DFT=T ScalE2(SS,OS)=  1.000000  1.000000
 ExpMin= 1.61D-01 ExpMax= 3.05D+03 ExpMxC= 4.57D+02 IAcc=3 IRadAn=         5 AccDes= 0.00D+00
 HarFok:  IExCor=  205 AccDes= 0.00D+00 IRadAn=         5 IDoV=-2 UseB2=F ITyADJ=14
 ICtDFT= 12500011 ScaDFX=  1.000000  1.000000  1.000000  1.000000
 Range of M.O.s used for correlation:     7   120
 NBasis=   120 NAE=    21 NBE=    21 NFC=     6 NFV=     0
 NROrb=    114 NOA=    15 NOB=    15 NVA=    99 NVB=    99
 Keep R1, R2, and R3 ints in memory in canonical form, NReq=84032236.
 Orbital symmetries:
       Occupied  (A) (A) (A) (A) (A) (A) (A) (A) (A) (A) (A) (A)
                 (A) (A) (A) (A) (A) (A) (A) (A) (A)
       Virtual   (A) (A) (A) (A) (A) (A) (A) (A) (A) (A) (A) (A)
                 (A) (A) (A) (A) (A) (A) (A) (A) (A) (A) (A) (A)
                 (A) (A) (A) (A) (A) (A) (A) (A) (A) (A) (A) (A)
                 (A) (A) (A) (A) (A) (A) (A) (A) (A) (A) (A) (A)
                 (A) (A) (A) (A) (A) (A) (A) (A) (A) (A) (A) (A)
                 (A) (A) (A) (A) (A) (A) (A) (A) (A) (A) (A) (A)
                 (A) (A) (A) (A) (A) (A) (A) (A) (A) (A) (A) (A)
                 (A) (A) (A) (A) (A) (A) (A) (A) (A) (A) (A) (A)
                 (A) (A) (A)
     4 initial guesses have been made.
 Convergence on wavefunction:    0.001000000000000
 Iteration     1 Dimension     4 NMult     0 NNew      4
 CISAX will form     4 AO SS matrices at one time.
 New state      1 was old state      3
 Iteration     2 Dimension     6 NMult     4 NNew      2
 Iteration     3 Dimension     8 NMult     6 NNew      2
 Iteration     4 Dimension    10 NMult     8 NNew      2
 Iteration     5 Dimension    12 NMult    10 NNew      2
 ***********************************************************************
 Excited states from <AA,BB:AA,BB> singles matrix:
 ***********************************************************************
 
 Ground to excited state transition densities written to RWF  633
 Ground to excited state transition electric dipole moments (Au):
       state          X           Y           Z        Dip. S.      Osc.
         1        -0.0044      0.0337      0.0027      0.0012      0.0002
 Ground to excited state transition velocity dipole moments (Au):
       state          X           Y           Z        Dip. S.      Osc.
         1         0.0007     -0.0058     -0.0003      0.0000      0.0001
 Ground to excited state transition magnetic dipole moments (Au):
       state          X           Y           Z
         1         0.0172     -0.0031      0.0350
 Ground to excited state transition velocity quadrupole moments (Au):
       state          XX          YY          ZZ          XY          XZ          YZ
         1        -0.0172      0.0120      0.0022      0.0067      0.0142      0.0094
 <0|del|b> * <b|rxdel|0> + <0|del|b> * <b|delr+rdel|0>
 Rotatory Strengths (R) in cgs (10**-40 erg-esu-cm/Gauss)
       state          XX          YY          ZZ    R(velocity)    E-M Angle
         1         0.1574      0.0182     -0.1051      0.0235       90.00
 1/2[<0|r|b>*<b|rxdel|0> + (<0|rxdel|b>*<b|r|0>)*]
 Rotatory Strengths (R) in cgs (10**-40 erg-esu-cm/Gauss)
       state          XX          YY          ZZ     R(length)
         1         0.0532      0.0730     -0.0658      0.0201
  1/2[<0|del|b>*<b|r|0> + (<0|r|b>*<b|del|0>)*] (Au)
       state          X           Y           Z        Dip. S.   Osc.(frdel)
         1        -0.0000     -0.0002     -0.0000      0.0002      0.0001

 Excitation energies and oscillator strengths:
 
 Excited State   1:      Singlet-A      5.4093 eV  229.20 nm  f=0.0002  <S**2>=0.000
      20 -> 22         0.50370
      21 -> 23        -0.49375
 This state for optimization and/or second-order correction.
 Total Energy, E(TD-HF/TD-DFT) =  -232.012400382    
 Copying the excited state density for this state as the 1-particle RhoCI density.
 SavETr:  write IOETrn=   770 NScale= 10 NData=  16 NLR=1 NState=    1 LETran=      28.

 **********************************************************************

            Population analysis using the SCF Density.

 **********************************************************************

 Orbital symmetries:
       Occupied  (A) (A) (A) (A) (A) (A) (A) (A) (A) (A) (A) (A)
                 (A) (A) (A) (A) (A) (A) (A) (A) (A)
       Virtual   (A) (A) (A) (A) (A) (A) (A) (A) (A) (A) (A) (A)
                 (A) (A) (A) (A) (A) (A) (A) (A) (A) (A) (A) (A)
                 (A) (A) (A) (A) (A) (A) (A) (A) (A) (A) (A) (A)
                 (A) (A) (A) (A) (A) (A) (A) (A) (A) (A) (A) (A)
                 (A) (A) (A) (A) (A) (A) (A) (A) (A) (A) (A) (A)
                 (A) (A) (A) (A) (A) (A) (A) (A) (A) (A) (A) (A)
                 (A) (A) (A) (A) (A) (A) (A) (A) (A) (A) (A) (A)
                 (A) (A) (A) (A) (A) (A) (A) (A) (A) (A) (A) (A)
                 (A) (A) (A)
 The electronic state is 1-A.
 Alpha  occ. eigenvalues --  -10.20759 -10.19491 -10.18991 -10.18635 -10.18248
 Alpha  occ. eigenvalues --  -10.18154  -0.84794  -0.75512  -0.72687  -0.60855
 Alpha  occ. eigenvalues --   -0.59031  -0.51514  -0.45829  -0.43902  -0.42613
 Alpha  occ. eigenvalues --   -0.40397  -0.36088  -0.34011  -0.32615  -0.25589
 Alpha  occ. eigenvalues --   -0.23753
 Alpha virt. eigenvalues --   -0.01228   0.00860   0.08274   0.13210   0.14192
 Alpha virt. eigenvalues --    0.15470   0.15833   0.18516   0.20456   0.27397
 Alpha virt. eigenvalues --    0.30388   0.30855   0.33120   0.46256   0.49791
 Alpha virt. eigenvalues --    0.52545   0.52955   0.55271   0.58956   0.58976
 Alpha virt. eigenvalues --    0.60331   0.61724   0.62380   0.63250   0.64773
 Alpha virt. eigenvalues --    0.66095   0.67003   0.74210   0.77911   0.79269
 Alpha virt. eigenvalues --    0.81352   0.83627   0.86731   0.90385   0.93037
 Alpha virt. eigenvalues --    0.94005   0.96462   1.01840   1.07563   1.10035
 Alpha virt. eigenvalues --    1.14095   1.15962   1.25385   1.29021   1.31986
 Alpha virt. eigenvalues --    1.36603   1.41576   1.43590   1.48262   1.52484
 Alpha virt. eigenvalues --    1.70386   1.74050   1.77177   1.78404   1.85995
 Alpha virt. eigenvalues --    1.91328   1.95976   1.97193   1.98719   2.01613
 Alpha virt. eigenvalues --    2.04172   2.04632   2.12650   2.21309   2.29512
 Alpha virt. eigenvalues --    2.30048   2.33589   2.35085   2.37498   2.40333
 Alpha virt. eigenvalues --    2.43182   2.43456   2.45715   2.48068   2.52067
 Alpha virt. eigenvalues --    2.53033   2.54556   2.55946   2.61194   2.67555
 Alpha virt. eigenvalues --    2.75723   2.77115   2.81784   2.94877   3.01666
 Alpha virt. eigenvalues --    3.12912   3.14531   3.24558   3.27271   3.41003
 Alpha virt. eigenvalues --    3.50220   3.63449   3.91509   4.12099   4.16310
 Alpha virt. eigenvalues --    4.17678   4.43703   4.45977   4.80035
          Condensed to atoms (all electrons):
               1          2          3          4          5          6
     1  C    4.801996   0.562122  -0.040548  -0.036424  -0.033617   0.507467
     2  C    0.562122   4.801446   0.540200  -0.034077  -0.040887  -0.028328
     3  C   -0.040548   0.540200   4.830541   0.554020  -0.043422  -0.045330
     4  C   -0.036424  -0.034077   0.554020   4.777881   0.559829  -0.031452
     5  C   -0.033617  -0.040887  -0.043422   0.559829   4.800483   0.521576
     6  C    0.507467  -0.028328  -0.045330  -0.031452   0.521576   4.907969
     7  H    0.382740  -0.045856   0.006692   0.000390   0.003839  -0.042127
     8  H   -0.048143   0.004625   0.000871   0.003240  -0.030745   0.359287
     9  H    0.003116   0.000306   0.006240  -0.045044   0.375132  -0.040866
    10  H    0.000479   0.005415  -0.043526   0.361868  -0.043343   0.005249
    11  H    0.004602  -0.040000   0.358371  -0.034323   0.004287   0.000330
    12  H   -0.047941   0.362830  -0.043727   0.005581   0.000886   0.006082
               7          8          9         10         11         12
     1  C    0.382740  -0.048143   0.003116   0.000479   0.004602  -0.047941
     2  C   -0.045856   0.004625   0.000306   0.005415  -0.040000   0.362830
     3  C    0.006692   0.000871   0.006240  -0.043526   0.358371  -0.043727
     4  C    0.000390   0.003240  -0.045044   0.361868  -0.034323   0.005581
     5  C    0.003839  -0.030745   0.375132  -0.043343   0.004287   0.000886
     6  C   -0.042127   0.359287  -0.040866   0.005249   0.000330   0.006082
     7  H    0.630520  -0.004491  -0.000111   0.000018  -0.000248  -0.010329
     8  H   -0.004491   0.628264  -0.002924  -0.000122   0.000011  -0.000277
     9  H   -0.000111  -0.002924   0.623683  -0.011361  -0.000189   0.000020
    10  H    0.000018  -0.000122  -0.011361   0.652933  -0.005774  -0.000235
    11  H   -0.000248   0.000011  -0.000189  -0.005774   0.634220  -0.006703
    12  H   -0.010329  -0.000277   0.000020  -0.000235  -0.006703   0.659599
 Mulliken charges:
               1
     1  C   -0.055849
     2  C   -0.087797
     3  C   -0.080382
     4  C   -0.081489
     5  C   -0.074019
     6  C   -0.119858
     7  H    0.078961
     8  H    0.090405
     9  H    0.091998
    10  H    0.078399
    11  H    0.085416
    12  H    0.074214
 Sum of Mulliken charges =  -0.00000
 Mulliken charges with hydrogens summed into heavy atoms:
               1
     1  C    0.023111
     2  C   -0.013582
     3  C    0.005034
     4  C   -0.003090
     5  C    0.017979
     6  C   -0.029452
 Electronic spatial extent (au):  <R**2>=            460.6019
 Charge=             -0.0000 electrons
 Dipole moment (field-independent basis, Debye):
    X=             -0.1527    Y=              0.1293    Z=             -0.0804  Tot=              0.2156
 Quadrupole moment (field-independent basis, Debye-Ang):
   XX=            -31.0321   YY=            -32.2998   ZZ=            -38.5481
   XY=              0.0508   XZ=              0.4817   YZ=             -0.2039
 Traceless Quadrupole moment (field-independent basis, Debye-Ang):
   XX=              2.9279   YY=              1.6602   ZZ=             -4.5881
   XY=              0.0508   XZ=              0.4817   YZ=             -0.2039
 Octapole moment (field-independent basis, Debye-Ang**2):
  XXX=             -1.4363  YYY=              2.2138  ZZZ=             -0.1010  XYY=             -0.7390
  XXY=             -1.0289  XXZ=             -0.4102  XZZ=             -0.2023  YZZ=              0.0681
  YYZ=             -0.3851  XYZ=             -0.8100
 Hexadecapole moment (field-independent basis, Debye-Ang**3):
 XXXX=           -273.1177 YYYY=           -273.8492 ZZZZ=            -40.6307 XXXY=             -2.7849
 XXXZ=              2.7859 YYYX=              3.4368 YYYZ=             -1.0247 ZZZX=              0.5861
 ZZZY=             -0.1461 XXYY=            -91.6599 XXZZ=            -60.9595 YYZZ=            -60.6873
 XXYZ=             -0.6643 YYXZ=              0.9182 ZZXY=             -0.3898
 N-N= 2.027152004711D+02 E-N=-9.426731137714D+02  KE= 2.299141566287D+02
 1\1\GINC-DESKTOP-PRN5QE3\SP\RB3LYP TD-FC\6-31G(d,p)\C6H6\SHOHEI\10-Nov
 -2023\0\\# TD=(NStates=1) B3LYP/6-31G(d,p)\\ABSSPCT\\0,1\C,0,-0.231364
 2889,1.4254015417,-0.0248819481\C,0,1.0300793308,0.896597876,0.0731258
 207\C,0,1.3127967773,-0.4814240831,-0.05288474\C,0,0.2324711005,-1.342
 9957904,0.0227662195\C,0,-1.0381158021,-0.9534760262,-0.0189004211\C,0
 ,-1.3454945409,0.452261496,0.0089878527\H,0,-0.2528176991,2.3922326962
 ,-0.1512792744\H,0,-2.3207959772,1.0199424421,-0.0720761187\H,0,-1.726
 4439924,-1.7544782712,0.1734798798\H,0,0.4680537764,-2.4549165455,-0.0
 132880922\H,0,2.4398206667,-0.7909543348,-0.1118363359\H,0,1.855793368
 9,1.5854180087,0.0259619442\\Version=EM64L-G16RevB.01\State=1-A\HF=-23
 2.2111903\RMSD=2.267e-09\PG=C01 [X(C6H6)]\\@


 CURIOUSER AND CURIOUSER

                  -- ALICE, IN WONDERLAND
 Job cpu time:       0 days  0 hours  3 minutes 11.2 seconds.
 Elapsed time:       0 days  0 hours  0 minutes 48.4 seconds.
 File lengths (MBytes):  RWF=    116 Int=      0 D2E=      0 Chk=      3 Scr=      1
 Normal termination of Gaussian 16 at Fri Nov 10 19:04:59 2023.
