 Entering Gaussian System, Link 0=g16
 Input=Geometry-17-.com
 Output=Geometry-17-.log
 Initial command:
 /home/shohei/gaussian/g16/l1.exe "/home/shohei/gaussian/scratch/Gau-13955.inp" -scrdir="/home/shohei/gaussian/scratch/"
 Entering Link 1 = /home/shohei/gaussian/g16/l1.exe PID=     13957.
  
 Copyright (c) 1988-2017, Gaussian, Inc.  All Rights Reserved.
  
 This is part of the Gaussian(R) 16 program.  It is based on
 the Gaussian(R) 09 system (copyright 2009, Gaussian, Inc.),
 the Gaussian(R) 03 system (copyright 2003, Gaussian, Inc.),
 the Gaussian(R) 98 system (copyright 1998, Gaussian, Inc.),
 the Gaussian(R) 94 system (copyright 1995, Gaussian, Inc.),
 the Gaussian 92(TM) system (copyright 1992, Gaussian, Inc.),
 the Gaussian 90(TM) system (copyright 1990, Gaussian, Inc.),
 the Gaussian 88(TM) system (copyright 1988, Gaussian, Inc.),
 the Gaussian 86(TM) system (copyright 1986, Carnegie Mellon
 University), and the Gaussian 82(TM) system (copyright 1983,
 Carnegie Mellon University). Gaussian is a federally registered
 trademark of Gaussian, Inc.
  
 This software contains proprietary and confidential information,
 including trade secrets, belonging to Gaussian, Inc.
  
 This software is provided under written license and may be
 used, copied, transmitted, or stored only in accord with that
 written license.
  
 The following legend is applicable only to US Government
 contracts under FAR:
  
                    RESTRICTED RIGHTS LEGEND
  
 Use, reproduction and disclosure by the US Government is
 subject to restrictions as set forth in subparagraphs (a)
 and (c) of the Commercial Computer Software - Restricted
 Rights clause in FAR 52.227-19.
  
 Gaussian, Inc.
 340 Quinnipiac St., Bldg. 40, Wallingford CT 06492
  
  
 ---------------------------------------------------------------
 Warning -- This program may not be used in any manner that
 competes with the business of Gaussian, Inc. or will provide
 assistance to any competitor of Gaussian, Inc.  The licensee
 of this program is prohibited from giving any competitor of
 Gaussian, Inc. access to this program.  By using this program,
 the user acknowledges that Gaussian, Inc. is engaged in the
 business of creating and licensing software in the field of
 computational chemistry and represents and warrants to the
 licensee that it is not a competitor of Gaussian, Inc. and that
 it will not use this program in any manner prohibited above.
 ---------------------------------------------------------------
  

 Cite this work as:
 Gaussian 16, Revision B.01,
 M. J. Frisch, G. W. Trucks, H. B. Schlegel, G. E. Scuseria, 
 M. A. Robb, J. R. Cheeseman, G. Scalmani, V. Barone, 
 G. A. Petersson, H. Nakatsuji, X. Li, M. Caricato, A. V. Marenich, 
 J. Bloino, B. G. Janesko, R. Gomperts, B. Mennucci, H. P. Hratchian, 
 J. V. Ortiz, A. F. Izmaylov, J. L. Sonnenberg, D. Williams-Young, 
 F. Ding, F. Lipparini, F. Egidi, J. Goings, B. Peng, A. Petrone, 
 T. Henderson, D. Ranasinghe, V. G. Zakrzewski, J. Gao, N. Rega, 
 G. Zheng, W. Liang, M. Hada, M. Ehara, K. Toyota, R. Fukuda, 
 J. Hasegawa, M. Ishida, T. Nakajima, Y. Honda, O. Kitao, H. Nakai, 
 T. Vreven, K. Throssell, J. A. Montgomery, Jr., J. E. Peralta, 
 F. Ogliaro, M. J. Bearpark, J. J. Heyd, E. N. Brothers, K. N. Kudin, 
 V. N. Staroverov, T. A. Keith, R. Kobayashi, J. Normand, 
 K. Raghavachari, A. P. Rendell, J. C. Burant, S. S. Iyengar, 
 J. Tomasi, M. Cossi, J. M. Millam, M. Klene, C. Adamo, R. Cammi, 
 J. W. Ochterski, R. L. Martin, K. Morokuma, O. Farkas, 
 J. B. Foresman, and D. J. Fox, Gaussian, Inc., Wallingford CT, 2016.
 
 ******************************************
 Gaussian 16:  EM64L-G16RevB.01 20-Dec-2017
                10-Nov-2023 
 ******************************************
 %nproc=4
 Will use up to    4 processors via shared memory.
 %Mem=2Gb
 ---------------------------------
 # TD=(NStates=1) B3LYP/6-31G(d,p)
 ---------------------------------
 1/38=1,172=1/1;
 2/12=2,17=6,18=5,40=1/2;
 3/5=1,6=6,7=101,11=9,25=1,30=1,74=-5/1,2,3,8;
 4//1;
 5/5=2,38=5/2;
 8/6=1,10=2,108=1/1;
 9/41=1,42=1,70=2/14;
 6/7=2,8=2,9=2,10=2/1;
 99/5=1,9=1/99;
 -------
 EMISPCT
 -------
 Symbolic Z-matrix:
 Charge =  0 Multiplicity = 1
 6                     0.36399   1.36423  -0.05798 
 6                     1.38964   0.4555    0.06009 
 6                     0.99693  -1.0291   -0.06226 
 6                    -0.39716  -1.43029   0.05318 
 6                    -1.33107  -0.39509  -0.04693 
 6                    -1.03951   1.00694   0.04485 
 1                     0.74957   2.46303  -0.04084 
 1                    -1.84839   1.86701   0.06784 
 1                    -2.34778  -0.63905  -0.09307 
 1                    -0.5272   -2.41545   0.21373 
 1                     1.72917  -1.70994  -0.21257 
 1                     2.45342   0.75406   0.18856 
 
                          Input orientation:                          
 ---------------------------------------------------------------------
 Center     Atomic      Atomic             Coordinates (Angstroms)
 Number     Number       Type             X           Y           Z
 ---------------------------------------------------------------------
      1          6           0        0.363987    1.364230   -0.057985
      2          6           0        1.389639    0.455498    0.060088
      3          6           0        0.996926   -1.029103   -0.062260
      4          6           0       -0.397155   -1.430287    0.053182
      5          6           0       -1.331068   -0.395085   -0.046929
      6          6           0       -1.039506    1.006945    0.044855
      7          1           0        0.749570    2.463029   -0.040836
      8          1           0       -1.848395    1.867011    0.067840
      9          1           0       -2.347776   -0.639055   -0.093069
     10          1           0       -0.527198   -2.415447    0.213733
     11          1           0        1.729167   -1.709937   -0.212573
     12          1           0        2.453424    0.754057    0.188560
 ---------------------------------------------------------------------
                    Distance matrix (angstroms):
                    1          2          3          4          5
     1  C    0.000000
     2  C    1.375390   0.000000
     3  C    2.475616   1.540531   0.000000
     4  C    2.898451   2.597858   1.455245   0.000000
     5  C    2.443056   2.852576   2.412834   1.397804   0.000000
     6  C    1.451903   2.490998   2.881670   2.520472   1.434964
     7  H    1.164615   2.109516   3.500948   4.059769   3.535238
     8  H    2.272280   3.532321   4.062051   3.602567   2.323334
     9  H    3.371652   3.897406   3.367509   2.110061   1.046587
    10  H    3.892814   3.455459   2.078720   1.006593   2.189980
    11  H    3.367212   2.208786   1.011091   2.161036   3.334863
    12  H    2.190626   1.112332   2.316022   3.593812   3.962116
                    6          7          8          9         10
     6  C    0.000000
     7  H    2.308315   0.000000
     8  H    1.180908   2.667671   0.000000
     9  H    2.107109   4.383971   2.560398   0.000000
    10  H    3.464642   5.049205   4.484004   2.562069   0.000000
    11  H    3.887578   4.289843   5.066768   4.216934   2.402221
    12  H    3.505020   2.424115   4.445097   5.007155   4.350919
                   11         12
    11  H    0.000000
    12  H    2.599370   0.000000
 Stoichiometry    C6H6
 Framework group  C1[X(C6H6)]
 Deg. of freedom    30
 Full point group                 C1      NOp   1
 Largest Abelian subgroup         C1      NOp   1
 Largest concise Abelian subgroup C1      NOp   1
                         Standard orientation:                         
 ---------------------------------------------------------------------
 Center     Atomic      Atomic             Coordinates (Angstroms)
 Number     Number       Type             X           Y           Z
 ---------------------------------------------------------------------
      1          6           0        1.399985    0.147256   -0.061498
      2          6           0        0.916705   -1.134920    0.057503
      3          6           0       -0.610519   -1.297232   -0.062815
      4          6           0       -1.482131   -0.137706    0.053497
      5          6           0       -0.847964    1.103843   -0.047729
      6          6           0        0.566016    1.331221    0.042157
      7          1           0        2.564071    0.178683   -0.045876
      8          1           0        1.081279    2.393559    0.064223
      9          1           0       -1.438382    1.966789   -0.093298
     10          1           0       -2.448722   -0.367337    0.215363
     11          1           0       -0.985812   -2.224097   -0.212424
     12          1           0        1.575015   -2.022373    0.185321
 ---------------------------------------------------------------------
 Rotational constants (GHZ):           5.5336926           5.2273112           2.6983204
 Standard basis: 6-31G(d,p) (6D, 7F)
 There are   120 symmetry adapted cartesian basis functions of A   symmetry.
 There are   120 symmetry adapted basis functions of A   symmetry.
   120 basis functions,   210 primitive gaussians,   120 cartesian basis functions
    21 alpha electrons       21 beta electrons
       nuclear repulsion energy       198.1790275437 Hartrees.
 NAtoms=   12 NActive=   12 NUniq=   12 SFac= 1.00D+00 NAtFMM=   60 NAOKFM=F Big=F
 Integral buffers will be    131072 words long.
 Regular integral format.
 Two-electron integral symmetry is turned on.
 One-electron integrals computed using PRISM.
 NBasis=   120 RedAO= T EigKep=  1.17D-03  NBF=   120
 NBsUse=   120 1.00D-06 EigRej= -1.00D+00 NBFU=   120
 ExpMin= 1.61D-01 ExpMax= 3.05D+03 ExpMxC= 4.57D+02 IAcc=3 IRadAn=         5 AccDes= 0.00D+00
 Harris functional with IExCor=  402 and IRadAn=       5 diagonalized for initial guess.
 HarFok:  IExCor=  402 AccDes= 0.00D+00 IRadAn=         5 IDoV= 1 UseB2=F ITyADJ=14
 ICtDFT=  3500011 ScaDFX=  1.000000  1.000000  1.000000  1.000000
 FoFCou: FMM=F IPFlag=           0 FMFlag=      100000 FMFlg1=           0
         NFxFlg=           0 DoJE=T BraDBF=F KetDBF=T FulRan=T
         wScrn=  0.000000 ICntrl=       500 IOpCl=  0 I1Cent=   200000004 NGrid=           0
         NMat0=    1 NMatS0=      1 NMatT0=    0 NMatD0=    1 NMtDS0=    0 NMtDT0=    0
 Petite list used in FoFCou.
 Keep R1 ints in memory in canonical form, NReq=30147728.
 Requested convergence on RMS density matrix=1.00D-08 within 128 cycles.
 Requested convergence on MAX density matrix=1.00D-06.
 Requested convergence on             energy=1.00D-06.
 No special actions if energy rises.
 Integral accuracy reduced to 1.0D-05 until final iterations.
 Initial convergence to 1.0D-05 achieved.  Increase integral accuracy.
 SCF Done:  E(RB3LYP) =  -232.199941306     A.U. after   13 cycles
            NFock= 13  Conv=0.89D-08     -V/T= 2.0121
 DoSCS=F DFT=T ScalE2(SS,OS)=  1.000000  1.000000
 ExpMin= 1.61D-01 ExpMax= 3.05D+03 ExpMxC= 4.57D+02 IAcc=3 IRadAn=         5 AccDes= 0.00D+00
 HarFok:  IExCor=  205 AccDes= 0.00D+00 IRadAn=         5 IDoV=-2 UseB2=F ITyADJ=14
 ICtDFT= 12500011 ScaDFX=  1.000000  1.000000  1.000000  1.000000
 Range of M.O.s used for correlation:     7   120
 NBasis=   120 NAE=    21 NBE=    21 NFC=     6 NFV=     0
 NROrb=    114 NOA=    15 NOB=    15 NVA=    99 NVB=    99
 Keep R1, R2, and R3 ints in memory in canonical form, NReq=84032236.
 Orbital symmetries:
       Occupied  (A) (A) (A) (A) (A) (A) (A) (A) (A) (A) (A) (A)
                 (A) (A) (A) (A) (A) (A) (A) (A) (A)
       Virtual   (A) (A) (A) (A) (A) (A) (A) (A) (A) (A) (A) (A)
                 (A) (A) (A) (A) (A) (A) (A) (A) (A) (A) (A) (A)
                 (A) (A) (A) (A) (A) (A) (A) (A) (A) (A) (A) (A)
                 (A) (A) (A) (A) (A) (A) (A) (A) (A) (A) (A) (A)
                 (A) (A) (A) (A) (A) (A) (A) (A) (A) (A) (A) (A)
                 (A) (A) (A) (A) (A) (A) (A) (A) (A) (A) (A) (A)
                 (A) (A) (A) (A) (A) (A) (A) (A) (A) (A) (A) (A)
                 (A) (A) (A) (A) (A) (A) (A) (A) (A) (A) (A) (A)
                 (A) (A) (A)
     4 initial guesses have been made.
 Convergence on wavefunction:    0.001000000000000
 Iteration     1 Dimension     4 NMult     0 NNew      4
 CISAX will form     4 AO SS matrices at one time.
 New state      1 was old state      2
 Iteration     2 Dimension     6 NMult     4 NNew      2
 Iteration     3 Dimension     8 NMult     6 NNew      2
 Iteration     4 Dimension    10 NMult     8 NNew      2
 Iteration     5 Dimension    12 NMult    10 NNew      2
 Iteration     6 Dimension    14 NMult    12 NNew      2
 ***********************************************************************
 Excited states from <AA,BB:AA,BB> singles matrix:
 ***********************************************************************
 
 Ground to excited state transition densities written to RWF  633
 Ground to excited state transition electric dipole moments (Au):
       state          X           Y           Z        Dip. S.      Osc.
         1         0.0558      0.0277      0.0004      0.0039      0.0005
 Ground to excited state transition velocity dipole moments (Au):
       state          X           Y           Z        Dip. S.      Osc.
         1        -0.0099     -0.0061     -0.0003      0.0001      0.0005
 Ground to excited state transition magnetic dipole moments (Au):
       state          X           Y           Z
         1         0.0054     -0.0477     -0.0489
 Ground to excited state transition velocity quadrupole moments (Au):
       state          XX          YY          ZZ          XY          XZ          YZ
         1        -0.0153      0.0063      0.0038     -0.0033     -0.0023      0.0048
 <0|del|b> * <b|rxdel|0> + <0|del|b> * <b|delr+rdel|0>
 Rotatory Strengths (R) in cgs (10**-40 erg-esu-cm/Gauss)
       state          XX          YY          ZZ    R(velocity)    E-M Angle
         1         0.5686     -0.1699      0.5822      0.3270       71.58
 1/2[<0|r|b>*<b|rxdel|0> + (<0|rxdel|b>*<b|r|0>)*]
 Rotatory Strengths (R) in cgs (10**-40 erg-esu-cm/Gauss)
       state          XX          YY          ZZ     R(length)
         1        -0.2115      0.9364      0.0139      0.2463
  1/2[<0|del|b>*<b|r|0> + (<0|r|b>*<b|del|0>)*] (Au)
       state          X           Y           Z        Dip. S.   Osc.(frdel)
         1        -0.0006     -0.0002     -0.0000      0.0007      0.0005

 Excitation energies and oscillator strengths:
 
 Excited State   1:      Singlet-A      4.9370 eV  251.13 nm  f=0.0005  <S**2>=0.000
      20 -> 22         0.51141
      21 -> 23         0.48088
 This state for optimization and/or second-order correction.
 Total Energy, E(TD-HF/TD-DFT) =  -232.018509607    
 Copying the excited state density for this state as the 1-particle RhoCI density.
 SavETr:  write IOETrn=   770 NScale= 10 NData=  16 NLR=1 NState=    1 LETran=      28.

 **********************************************************************

            Population analysis using the SCF Density.

 **********************************************************************

 Orbital symmetries:
       Occupied  (A) (A) (A) (A) (A) (A) (A) (A) (A) (A) (A) (A)
                 (A) (A) (A) (A) (A) (A) (A) (A) (A)
       Virtual   (A) (A) (A) (A) (A) (A) (A) (A) (A) (A) (A) (A)
                 (A) (A) (A) (A) (A) (A) (A) (A) (A) (A) (A) (A)
                 (A) (A) (A) (A) (A) (A) (A) (A) (A) (A) (A) (A)
                 (A) (A) (A) (A) (A) (A) (A) (A) (A) (A) (A) (A)
                 (A) (A) (A) (A) (A) (A) (A) (A) (A) (A) (A) (A)
                 (A) (A) (A) (A) (A) (A) (A) (A) (A) (A) (A) (A)
                 (A) (A) (A) (A) (A) (A) (A) (A) (A) (A) (A) (A)
                 (A) (A) (A) (A) (A) (A) (A) (A) (A) (A) (A) (A)
                 (A) (A) (A)
 The electronic state is 1-A.
 Alpha  occ. eigenvalues --  -10.20901 -10.20125 -10.19933 -10.19795 -10.19294
 Alpha  occ. eigenvalues --  -10.19135  -0.82863  -0.74210  -0.72164  -0.60184
 Alpha  occ. eigenvalues --   -0.58764  -0.50982  -0.47068  -0.43319  -0.41577
 Alpha  occ. eigenvalues --   -0.40465  -0.35063  -0.34486  -0.32736  -0.24641
 Alpha  occ. eigenvalues --   -0.22795
 Alpha virt. eigenvalues --   -0.02028   0.00103   0.08253   0.12820   0.13441
 Alpha virt. eigenvalues --    0.15295   0.16824   0.17272   0.18820   0.25974
 Alpha virt. eigenvalues --    0.27992   0.29942   0.32050   0.44837   0.47018
 Alpha virt. eigenvalues --    0.51052   0.53151   0.55158   0.57391   0.58776
 Alpha virt. eigenvalues --    0.59180   0.61012   0.61142   0.61465   0.64255
 Alpha virt. eigenvalues --    0.66224   0.66676   0.73066   0.76796   0.80560
 Alpha virt. eigenvalues --    0.82221   0.86548   0.87609   0.88205   0.91922
 Alpha virt. eigenvalues --    0.94128   0.95324   1.04218   1.06123   1.07503
 Alpha virt. eigenvalues --    1.09019   1.15042   1.17926   1.31355   1.33933
 Alpha virt. eigenvalues --    1.35975   1.42289   1.43507   1.48148   1.49742
 Alpha virt. eigenvalues --    1.62442   1.69058   1.77887   1.78705   1.85684
 Alpha virt. eigenvalues --    1.87667   1.92653   1.93288   1.96893   1.97963
 Alpha virt. eigenvalues --    1.99787   2.04247   2.07137   2.17755   2.21081
 Alpha virt. eigenvalues --    2.28893   2.33338   2.34901   2.39080   2.40634
 Alpha virt. eigenvalues --    2.41740   2.44364   2.46232   2.47574   2.49842
 Alpha virt. eigenvalues --    2.51562   2.51739   2.57260   2.57750   2.62132
 Alpha virt. eigenvalues --    2.71093   2.75469   2.76681   2.95997   2.98581
 Alpha virt. eigenvalues --    3.02459   3.10363   3.24626   3.28955   3.40586
 Alpha virt. eigenvalues --    3.52244   3.57613   3.86749   4.08927   4.15320
 Alpha virt. eigenvalues --    4.18006   4.41816   4.44744   4.72413
          Condensed to atoms (all electrons):
               1          2          3          4          5          6
     1  C    4.822480   0.556385  -0.028463  -0.033137  -0.029577   0.506823
     2  C    0.556385   4.862915   0.486421  -0.028637  -0.035379  -0.041963
     3  C   -0.028463   0.486421   4.895477   0.523873  -0.025226  -0.038430
     4  C   -0.033137  -0.028637   0.523873   4.803661   0.525304  -0.031979
     5  C   -0.029577  -0.035379  -0.025226   0.525304   4.821583   0.533745
     6  C    0.506823  -0.041963  -0.038430  -0.031979   0.533745   4.874830
     7  H    0.353085  -0.047276   0.004850   0.000477   0.003811  -0.034472
     8  H   -0.036299   0.003483   0.000099   0.002978  -0.032417   0.360858
     9  H    0.005144   0.000719   0.005545  -0.049024   0.370230  -0.046177
    10  H    0.000110   0.004228  -0.048842   0.387261  -0.042300   0.003899
    11  H    0.004550  -0.041438   0.368506  -0.042807   0.005132   0.000951
    12  H   -0.038199   0.367821  -0.036228   0.002938   0.000177   0.003988
               7          8          9         10         11         12
     1  C    0.353085  -0.036299   0.005144   0.000110   0.004550  -0.038199
     2  C   -0.047276   0.003483   0.000719   0.004228  -0.041438   0.367821
     3  C    0.004850   0.000099   0.005545  -0.048842   0.368506  -0.036228
     4  C    0.000477   0.002978  -0.049024   0.387261  -0.042807   0.002938
     5  C    0.003811  -0.032417   0.370230  -0.042300   0.005132   0.000177
     6  C   -0.034472   0.360858  -0.046177   0.003899   0.000951   0.003988
     7  H    0.657136  -0.003976  -0.000165   0.000015  -0.000211  -0.007864
     8  H   -0.003976   0.615557  -0.005207  -0.000084   0.000008  -0.000119
     9  H   -0.000165  -0.005207   0.641838  -0.005769  -0.000258   0.000012
    10  H    0.000015  -0.000084  -0.005769   0.614906  -0.005616  -0.000140
    11  H   -0.000211   0.000008  -0.000258  -0.005616   0.629077  -0.002983
    12  H   -0.007864  -0.000119   0.000012  -0.000140  -0.002983   0.615010
 Mulliken charges:
               1
     1  C   -0.082903
     2  C   -0.087279
     3  C   -0.107582
     4  C   -0.060909
     5  C   -0.095084
     6  C   -0.092074
     7  H    0.074590
     8  H    0.095120
     9  H    0.083111
    10  H    0.092335
    11  H    0.085089
    12  H    0.095586
 Sum of Mulliken charges =  -0.00000
 Mulliken charges with hydrogens summed into heavy atoms:
               1
     1  C   -0.008313
     2  C    0.008307
     3  C   -0.022493
     4  C    0.031426
     5  C   -0.011973
     6  C    0.003046
 Electronic spatial extent (au):  <R**2>=            478.2582
 Charge=             -0.0000 electrons
 Dipole moment (field-independent basis, Debye):
    X=             -0.1440    Y=             -0.1661    Z=              0.0764  Tot=              0.2327
 Quadrupole moment (field-independent basis, Debye-Ang):
   XX=            -31.3317   YY=            -31.3268   ZZ=            -38.9175
   XY=              0.1490   XZ=              0.0318   YZ=             -0.0252
 Traceless Quadrupole moment (field-independent basis, Debye-Ang):
   XX=              2.5270   YY=              2.5318   ZZ=             -5.0588
   XY=              0.1490   XZ=              0.0318   YZ=             -0.0252
 Octapole moment (field-independent basis, Debye-Ang**2):
  XXX=             -2.2927  YYY=             -0.1410  ZZZ=              0.0693  XYY=              0.8723
  XXY=             -1.7709  XXZ=              1.1342  XZZ=             -0.7794  YZZ=             -0.3423
  YYZ=             -0.1503  XYZ=             -0.3263
 Hexadecapole moment (field-independent basis, Debye-Ang**3):
 XXXX=           -290.7229 YYYY=           -275.1066 ZZZZ=            -42.0001 XXXY=             -0.1278
 XXXZ=             -2.1684 YYYX=              1.7021 YYYZ=              0.7862 ZZZX=             -0.0466
 ZZZY=              0.0248 XXYY=            -93.2064 XXZZ=            -64.2832 YYZZ=            -62.1072
 XXYZ=             -1.0300 YYXZ=              2.4596 ZZXY=             -0.1104
 N-N= 1.981790275437D+02 E-N=-9.332173423910D+02  KE= 2.294330095719D+02
 1\1\GINC-DESKTOP-PRN5QE3\SP\RB3LYP TD-FC\6-31G(d,p)\C6H6\SHOHEI\10-Nov
 -2023\0\\# TD=(NStates=1) B3LYP/6-31G(d,p)\\EMISPCT\\0,1\C,0,0.3639872
 563,1.3642300087,-0.0579849717\C,0,1.3896390318,0.4554982059,0.0600881
 284\C,0,0.9969262256,-1.0291033925,-0.0622604929\C,0,-0.3971551714,-1.
 4302868235,0.0531823641\C,0,-1.3310678084,-0.3950854254,-0.0469286728\
 C,0,-1.0395057727,1.0069447601,0.0448548837\H,0,0.7495696852,2.4630293
 474,-0.0408357662\H,0,-1.8483947231,1.8670112209,0.0678397231\H,0,-2.3
 477757768,-0.6390547339,-0.0930687335\H,0,-0.5271982871,-2.4154471125,
 0.2137334889\H,0,1.7291665618,-1.7099374487,-0.2125734462\H,0,2.453424
 481,0.7540566925,0.1885604721\\Version=EM64L-G16RevB.01\State=1-A\HF=-
 232.1999413\RMSD=8.872e-09\PG=C01 [X(C6H6)]\\@


 AN AIRPLANE IS A COLLECTION OF SPARE PARTS
 FLYING IN CLOSE FORMATION.
 Job cpu time:       0 days  0 hours  3 minutes 33.8 seconds.
 Elapsed time:       0 days  0 hours  0 minutes 54.1 seconds.
 File lengths (MBytes):  RWF=    116 Int=      0 D2E=      0 Chk=      3 Scr=      1
 Normal termination of Gaussian 16 at Fri Nov 10 19:47:47 2023.
