 Entering Gaussian System, Link 0=g16
 Input=Geometry-205-.com
 Output=Geometry-205-.log
 Initial command:
 /home/shohei/gaussian/g16/l1.exe "/home/shohei/gaussian/scratch/Gau-29793.inp" -scrdir="/home/shohei/gaussian/scratch/"
 Entering Link 1 = /home/shohei/gaussian/g16/l1.exe PID=     29795.
  
 Copyright (c) 1988-2017, Gaussian, Inc.  All Rights Reserved.
  
 This is part of the Gaussian(R) 16 program.  It is based on
 the Gaussian(R) 09 system (copyright 2009, Gaussian, Inc.),
 the Gaussian(R) 03 system (copyright 2003, Gaussian, Inc.),
 the Gaussian(R) 98 system (copyright 1998, Gaussian, Inc.),
 the Gaussian(R) 94 system (copyright 1995, Gaussian, Inc.),
 the Gaussian 92(TM) system (copyright 1992, Gaussian, Inc.),
 the Gaussian 90(TM) system (copyright 1990, Gaussian, Inc.),
 the Gaussian 88(TM) system (copyright 1988, Gaussian, Inc.),
 the Gaussian 86(TM) system (copyright 1986, Carnegie Mellon
 University), and the Gaussian 82(TM) system (copyright 1983,
 Carnegie Mellon University). Gaussian is a federally registered
 trademark of Gaussian, Inc.
  
 This software contains proprietary and confidential information,
 including trade secrets, belonging to Gaussian, Inc.
  
 This software is provided under written license and may be
 used, copied, transmitted, or stored only in accord with that
 written license.
  
 The following legend is applicable only to US Government
 contracts under FAR:
  
                    RESTRICTED RIGHTS LEGEND
  
 Use, reproduction and disclosure by the US Government is
 subject to restrictions as set forth in subparagraphs (a)
 and (c) of the Commercial Computer Software - Restricted
 Rights clause in FAR 52.227-19.
  
 Gaussian, Inc.
 340 Quinnipiac St., Bldg. 40, Wallingford CT 06492
  
  
 ---------------------------------------------------------------
 Warning -- This program may not be used in any manner that
 competes with the business of Gaussian, Inc. or will provide
 assistance to any competitor of Gaussian, Inc.  The licensee
 of this program is prohibited from giving any competitor of
 Gaussian, Inc. access to this program.  By using this program,
 the user acknowledges that Gaussian, Inc. is engaged in the
 business of creating and licensing software in the field of
 computational chemistry and represents and warrants to the
 licensee that it is not a competitor of Gaussian, Inc. and that
 it will not use this program in any manner prohibited above.
 ---------------------------------------------------------------
  

 Cite this work as:
 Gaussian 16, Revision B.01,
 M. J. Frisch, G. W. Trucks, H. B. Schlegel, G. E. Scuseria, 
 M. A. Robb, J. R. Cheeseman, G. Scalmani, V. Barone, 
 G. A. Petersson, H. Nakatsuji, X. Li, M. Caricato, A. V. Marenich, 
 J. Bloino, B. G. Janesko, R. Gomperts, B. Mennucci, H. P. Hratchian, 
 J. V. Ortiz, A. F. Izmaylov, J. L. Sonnenberg, D. Williams-Young, 
 F. Ding, F. Lipparini, F. Egidi, J. Goings, B. Peng, A. Petrone, 
 T. Henderson, D. Ranasinghe, V. G. Zakrzewski, J. Gao, N. Rega, 
 G. Zheng, W. Liang, M. Hada, M. Ehara, K. Toyota, R. Fukuda, 
 J. Hasegawa, M. Ishida, T. Nakajima, Y. Honda, O. Kitao, H. Nakai, 
 T. Vreven, K. Throssell, J. A. Montgomery, Jr., J. E. Peralta, 
 F. Ogliaro, M. J. Bearpark, J. J. Heyd, E. N. Brothers, K. N. Kudin, 
 V. N. Staroverov, T. A. Keith, R. Kobayashi, J. Normand, 
 K. Raghavachari, A. P. Rendell, J. C. Burant, S. S. Iyengar, 
 J. Tomasi, M. Cossi, J. M. Millam, M. Klene, C. Adamo, R. Cammi, 
 J. W. Ochterski, R. L. Martin, K. Morokuma, O. Farkas, 
 J. B. Foresman, and D. J. Fox, Gaussian, Inc., Wallingford CT, 2016.
 
 ******************************************
 Gaussian 16:  EM64L-G16RevB.01 20-Dec-2017
                10-Nov-2023 
 ******************************************
 %nproc=4
 Will use up to    4 processors via shared memory.
 %Mem=2Gb
 ---------------------------------
 # TD=(NStates=1) B3LYP/6-31G(d,p)
 ---------------------------------
 1/38=1,172=1/1;
 2/12=2,17=6,18=5,40=1/2;
 3/5=1,6=6,7=101,11=9,25=1,30=1,74=-5/1,2,3,8;
 4//1;
 5/5=2,38=5/2;
 8/6=1,10=2,108=1/1;
 9/41=1,42=1,70=2/14;
 6/7=2,8=2,9=2,10=2/1;
 99/5=1,9=1/99;
 -------
 EMISPCT
 -------
 Symbolic Z-matrix:
 Charge =  0 Multiplicity = 1
 6                     0.3652    1.38759  -0.14451 
 6                     1.34763   0.36474   0.0224 
 6                     1.05099  -1.00465   0.09056 
 6                    -0.34437  -1.41497  -0.12854 
 6                    -1.38623  -0.34417   0.07106 
 6                    -1.02184   1.01806   0.11757 
 1                     0.54193   2.34339  -0.25262 
 1                    -1.84689   1.82239  -0.23255 
 1                    -2.34207  -0.78806   0.13732 
 1                    -0.69374  -2.50376  -0.47291 
 1                     1.89607  -1.71372   0.08943 
 1                     2.33423   0.76458   0.34112 
 
                          Input orientation:                          
 ---------------------------------------------------------------------
 Center     Atomic      Atomic             Coordinates (Angstroms)
 Number     Number       Type             X           Y           Z
 ---------------------------------------------------------------------
      1          6           0        0.365198    1.387587   -0.144507
      2          6           0        1.347629    0.364744    0.022403
      3          6           0        1.050987   -1.004649    0.090563
      4          6           0       -0.344374   -1.414968   -0.128539
      5          6           0       -1.386230   -0.344173    0.071063
      6          6           0       -1.021836    1.018065    0.117568
      7          1           0        0.541927    2.343393   -0.252622
      8          1           0       -1.846887    1.822388   -0.232554
      9          1           0       -2.342069   -0.788056    0.137325
     10          1           0       -0.693740   -2.503756   -0.472910
     11          1           0        1.896066   -1.713720    0.089433
     12          1           0        2.334227    0.764579    0.341120
 ---------------------------------------------------------------------
                    Distance matrix (angstroms):
                    1          2          3          4          5
     1  C    0.000000
     2  C    1.428019   0.000000
     3  C    2.499671   1.402811   0.000000
     4  C    2.891031   2.460291   1.470850   0.000000
     5  C    2.472440   2.824697   2.525200   1.507284   0.000000
     6  C    1.459141   2.459725   2.896324   2.537552   1.410900
     7  H    0.978002   2.154031   3.403865   3.863444   3.323488
     8  H    2.256130   3.520605   4.061307   3.570551   2.235704
     9  H    3.484558   3.867303   3.400284   2.110566   1.055960
    10  H    4.046202   3.555392   2.368311   1.194198   2.332219
    11  H    3.466467   2.150648   1.103151   2.270756   3.556608
    12  H    2.121567   1.111226   2.199920   3.485097   3.891537
                    6          7          8          9         10
     6  C    0.000000
     7  H    2.083000   0.000000
     8  H    1.204255   2.445052   0.000000
     9  H    2.237293   4.274981   2.682616   0.000000
    10  H    3.586019   5.007020   4.483641   2.456217   0.000000
    11  H    3.997198   4.290788   5.159208   4.338310   2.765408
    12  H    3.373038   2.461203   4.350835   4.931526   4.529154
                   11         12
    11  H    0.000000
    12  H    2.529288   0.000000
 Stoichiometry    C6H6
 Framework group  C1[X(C6H6)]
 Deg. of freedom    30
 Full point group                 C1      NOp   1
 Largest Abelian subgroup         C1      NOp   1
 Largest concise Abelian subgroup C1      NOp   1
                         Standard orientation:                         
 ---------------------------------------------------------------------
 Center     Atomic      Atomic             Coordinates (Angstroms)
 Number     Number       Type             X           Y           Z
 ---------------------------------------------------------------------
      1          6           0       -1.048197   -0.980246    0.147152
      2          6           0        0.319174   -1.360607   -0.010522
      3          6           0        1.383418   -0.449774   -0.085662
      4          6           0        1.080732    0.975445    0.115660
      5          6           0       -0.355784    1.381002   -0.093744
      6          6           0       -1.381142    0.412612   -0.132465
      7          1           0       -1.805634   -1.588599    0.259771
      8          1           0       -2.482100    0.760479    0.209747
      9          1           0       -0.419114    2.432110   -0.172577
     10          1           0        1.871576    1.804188    0.453089
     11          1           0        2.408851   -0.856395   -0.076171
     12          1           0        0.437221   -2.422369   -0.316379
 ---------------------------------------------------------------------
 Rotational constants (GHZ):           5.4455433           5.2466180           2.7084362
 Standard basis: 6-31G(d,p) (6D, 7F)
 There are   120 symmetry adapted cartesian basis functions of A   symmetry.
 There are   120 symmetry adapted basis functions of A   symmetry.
   120 basis functions,   210 primitive gaussians,   120 cartesian basis functions
    21 alpha electrons       21 beta electrons
       nuclear repulsion energy       197.4651924374 Hartrees.
 NAtoms=   12 NActive=   12 NUniq=   12 SFac= 1.00D+00 NAtFMM=   60 NAOKFM=F Big=F
 Integral buffers will be    131072 words long.
 Regular integral format.
 Two-electron integral symmetry is turned on.
 One-electron integrals computed using PRISM.
 NBasis=   120 RedAO= T EigKep=  1.19D-03  NBF=   120
 NBsUse=   120 1.00D-06 EigRej= -1.00D+00 NBFU=   120
 ExpMin= 1.61D-01 ExpMax= 3.05D+03 ExpMxC= 4.57D+02 IAcc=3 IRadAn=         5 AccDes= 0.00D+00
 Harris functional with IExCor=  402 and IRadAn=       5 diagonalized for initial guess.
 HarFok:  IExCor=  402 AccDes= 0.00D+00 IRadAn=         5 IDoV= 1 UseB2=F ITyADJ=14
 ICtDFT=  3500011 ScaDFX=  1.000000  1.000000  1.000000  1.000000
 FoFCou: FMM=F IPFlag=           0 FMFlag=      100000 FMFlg1=           0
         NFxFlg=           0 DoJE=T BraDBF=F KetDBF=T FulRan=T
         wScrn=  0.000000 ICntrl=       500 IOpCl=  0 I1Cent=   200000004 NGrid=           0
         NMat0=    1 NMatS0=      1 NMatT0=    0 NMatD0=    1 NMtDS0=    0 NMtDT0=    0
 Petite list used in FoFCou.
 Keep R1 ints in memory in canonical form, NReq=30147728.
 Requested convergence on RMS density matrix=1.00D-08 within 128 cycles.
 Requested convergence on MAX density matrix=1.00D-06.
 Requested convergence on             energy=1.00D-06.
 No special actions if energy rises.
 Integral accuracy reduced to 1.0D-05 until final iterations.
 Initial convergence to 1.0D-05 achieved.  Increase integral accuracy.
 SCF Done:  E(RB3LYP) =  -232.187997155     A.U. after   14 cycles
            NFock= 14  Conv=0.33D-08     -V/T= 2.0129
 DoSCS=F DFT=T ScalE2(SS,OS)=  1.000000  1.000000
 ExpMin= 1.61D-01 ExpMax= 3.05D+03 ExpMxC= 4.57D+02 IAcc=3 IRadAn=         5 AccDes= 0.00D+00
 HarFok:  IExCor=  205 AccDes= 0.00D+00 IRadAn=         5 IDoV=-2 UseB2=F ITyADJ=14
 ICtDFT= 12500011 ScaDFX=  1.000000  1.000000  1.000000  1.000000
 Range of M.O.s used for correlation:     7   120
 NBasis=   120 NAE=    21 NBE=    21 NFC=     6 NFV=     0
 NROrb=    114 NOA=    15 NOB=    15 NVA=    99 NVB=    99
 Keep R1, R2, and R3 ints in memory in canonical form, NReq=84032236.
 Orbital symmetries:
       Occupied  (A) (A) (A) (A) (A) (A) (A) (A) (A) (A) (A) (A)
                 (A) (A) (A) (A) (A) (A) (A) (A) (A)
       Virtual   (A) (A) (A) (A) (A) (A) (A) (A) (A) (A) (A) (A)
                 (A) (A) (A) (A) (A) (A) (A) (A) (A) (A) (A) (A)
                 (A) (A) (A) (A) (A) (A) (A) (A) (A) (A) (A) (A)
                 (A) (A) (A) (A) (A) (A) (A) (A) (A) (A) (A) (A)
                 (A) (A) (A) (A) (A) (A) (A) (A) (A) (A) (A) (A)
                 (A) (A) (A) (A) (A) (A) (A) (A) (A) (A) (A) (A)
                 (A) (A) (A) (A) (A) (A) (A) (A) (A) (A) (A) (A)
                 (A) (A) (A) (A) (A) (A) (A) (A) (A) (A) (A) (A)
                 (A) (A) (A)
     4 initial guesses have been made.
 Convergence on wavefunction:    0.001000000000000
 Iteration     1 Dimension     4 NMult     0 NNew      4
 CISAX will form     4 AO SS matrices at one time.
 New state      1 was old state      2
 Iteration     2 Dimension     6 NMult     4 NNew      2
 Iteration     3 Dimension     8 NMult     6 NNew      2
 Iteration     4 Dimension    10 NMult     8 NNew      2
 Iteration     5 Dimension    12 NMult    10 NNew      2
 ***********************************************************************
 Excited states from <AA,BB:AA,BB> singles matrix:
 ***********************************************************************
 
 Ground to excited state transition densities written to RWF  633
 Ground to excited state transition electric dipole moments (Au):
       state          X           Y           Z        Dip. S.      Osc.
         1        -0.0259     -0.0783      0.0092      0.0069      0.0008
 Ground to excited state transition velocity dipole moments (Au):
       state          X           Y           Z        Dip. S.      Osc.
         1         0.0062      0.0161     -0.0016      0.0003      0.0011
 Ground to excited state transition magnetic dipole moments (Au):
       state          X           Y           Z
         1        -0.0066      0.0022      0.0030
 Ground to excited state transition velocity quadrupole moments (Au):
       state          XX          YY          ZZ          XY          XZ          YZ
         1        -0.0198      0.0044      0.0066      0.0083     -0.0313      0.0242
 <0|del|b> * <b|rxdel|0> + <0|del|b> * <b|delr+rdel|0>
 Rotatory Strengths (R) in cgs (10**-40 erg-esu-cm/Gauss)
       state          XX          YY          ZZ    R(velocity)    E-M Angle
         1         1.0461      0.2363     -1.3227     -0.0134       90.00
 1/2[<0|r|b>*<b|rxdel|0> + (<0|rxdel|b>*<b|r|0>)*]
 Rotatory Strengths (R) in cgs (10**-40 erg-esu-cm/Gauss)
       state          XX          YY          ZZ     R(length)
         1        -0.1203      0.1218     -0.0192     -0.0059
  1/2[<0|del|b>*<b|r|0> + (<0|r|b>*<b|del|0>)*] (Au)
       state          X           Y           Z        Dip. S.   Osc.(frdel)
         1        -0.0002     -0.0013     -0.0000      0.0014      0.0010

 Excitation energies and oscillator strengths:
 
 Excited State   1:      Singlet-A      4.7978 eV  258.42 nm  f=0.0008  <S**2>=0.000
      20 -> 22        -0.47827
      21 -> 23         0.50688
 This state for optimization and/or second-order correction.
 Total Energy, E(TD-HF/TD-DFT) =  -232.011681466    
 Copying the excited state density for this state as the 1-particle RhoCI density.
 SavETr:  write IOETrn=   770 NScale= 10 NData=  16 NLR=1 NState=    1 LETran=      28.

 **********************************************************************

            Population analysis using the SCF Density.

 **********************************************************************

 Orbital symmetries:
       Occupied  (A) (A) (A) (A) (A) (A) (A) (A) (A) (A) (A) (A)
                 (A) (A) (A) (A) (A) (A) (A) (A) (A)
       Virtual   (A) (A) (A) (A) (A) (A) (A) (A) (A) (A) (A) (A)
                 (A) (A) (A) (A) (A) (A) (A) (A) (A) (A) (A) (A)
                 (A) (A) (A) (A) (A) (A) (A) (A) (A) (A) (A) (A)
                 (A) (A) (A) (A) (A) (A) (A) (A) (A) (A) (A) (A)
                 (A) (A) (A) (A) (A) (A) (A) (A) (A) (A) (A) (A)
                 (A) (A) (A) (A) (A) (A) (A) (A) (A) (A) (A) (A)
                 (A) (A) (A) (A) (A) (A) (A) (A) (A) (A) (A) (A)
                 (A) (A) (A) (A) (A) (A) (A) (A) (A) (A) (A) (A)
                 (A) (A) (A)
 The electronic state is 1-A.
 Alpha  occ. eigenvalues --  -10.21818 -10.20747 -10.20356 -10.20250 -10.19658
 Alpha  occ. eigenvalues --  -10.18859  -0.82822  -0.73360  -0.72648  -0.59718
 Alpha  occ. eigenvalues --   -0.58643  -0.51046  -0.46077  -0.42872  -0.41021
 Alpha  occ. eigenvalues --   -0.40502  -0.36491  -0.34287  -0.31184  -0.24700
 Alpha  occ. eigenvalues --   -0.23179
 Alpha virt. eigenvalues --   -0.02360  -0.01132   0.08367   0.11022   0.12844
 Alpha virt. eigenvalues --    0.14341   0.16585   0.16892   0.18979   0.25644
 Alpha virt. eigenvalues --    0.27718   0.28456   0.32135   0.46134   0.47766
 Alpha virt. eigenvalues --    0.50022   0.52924   0.54128   0.57452   0.59055
 Alpha virt. eigenvalues --    0.59405   0.60330   0.60601   0.62547   0.63368
 Alpha virt. eigenvalues --    0.65887   0.66347   0.72201   0.76543   0.77483
 Alpha virt. eigenvalues --    0.81653   0.84772   0.87075   0.89489   0.91008
 Alpha virt. eigenvalues --    0.91952   0.94566   0.99126   1.02168   1.06565
 Alpha virt. eigenvalues --    1.07710   1.11616   1.15973   1.27451   1.32982
 Alpha virt. eigenvalues --    1.33169   1.41087   1.43219   1.48264   1.57348
 Alpha virt. eigenvalues --    1.68529   1.72057   1.75470   1.78818   1.82655
 Alpha virt. eigenvalues --    1.85957   1.90557   1.92924   1.96364   1.98290
 Alpha virt. eigenvalues --    2.00590   2.02142   2.04144   2.19628   2.19949
 Alpha virt. eigenvalues --    2.24377   2.27617   2.32642   2.35208   2.37427
 Alpha virt. eigenvalues --    2.40300   2.43663   2.45715   2.47628   2.49802
 Alpha virt. eigenvalues --    2.50912   2.52496   2.53537   2.57824   2.62154
 Alpha virt. eigenvalues --    2.68252   2.71412   2.77125   2.92336   2.95319
 Alpha virt. eigenvalues --    2.99425   3.12079   3.18892   3.24320   3.30017
 Alpha virt. eigenvalues --    3.48157   3.55805   3.82983   4.08895   4.16904
 Alpha virt. eigenvalues --    4.17575   4.40264   4.43972   4.71543
          Condensed to atoms (all electrons):
               1          2          3          4          5          6
     1  C    4.828632   0.523747  -0.033404  -0.029576  -0.035968   0.511958
     2  C    0.523747   4.856817   0.521218  -0.036483  -0.042199  -0.028154
     3  C   -0.033404   0.521218   4.843994   0.513690  -0.025687  -0.034485
     4  C   -0.029576  -0.036483   0.513690   4.925016   0.495976  -0.035963
     5  C   -0.035968  -0.042199  -0.025687   0.495976   4.867448   0.512703
     6  C    0.511958  -0.028154  -0.034485  -0.035963   0.512703   4.901495
     7  H    0.380548  -0.041723   0.005494   0.000554   0.005379  -0.046380
     8  H   -0.038458   0.004213   0.000225   0.003396  -0.035850   0.352550
     9  H    0.003755   0.000614   0.003748  -0.046687   0.372337  -0.036607
    10  H    0.000154   0.003419  -0.032134   0.352360  -0.034871   0.003772
    11  H    0.004445  -0.041353   0.369308  -0.039799   0.003743   0.000103
    12  H   -0.047465   0.368013  -0.041126   0.004411   0.000098   0.005018
               7          8          9         10         11         12
     1  C    0.380548  -0.038458   0.003755   0.000154   0.004445  -0.047465
     2  C   -0.041723   0.004213   0.000614   0.003419  -0.041353   0.368013
     3  C    0.005494   0.000225   0.003748  -0.032134   0.369308  -0.041126
     4  C    0.000554   0.003396  -0.046687   0.352360  -0.039799   0.004411
     5  C    0.005379  -0.035850   0.372337  -0.034871   0.003743   0.000098
     6  C   -0.046380   0.352550  -0.036607   0.003772   0.000103   0.005018
     7  H    0.622178  -0.004846  -0.000193   0.000005  -0.000136  -0.006129
     8  H   -0.004846   0.641245  -0.004332  -0.000094   0.000007  -0.000174
     9  H   -0.000193  -0.004332   0.614429  -0.004044  -0.000164   0.000012
    10  H    0.000005  -0.000094  -0.004044   0.620410  -0.002831  -0.000097
    11  H   -0.000136   0.000007  -0.000164  -0.002831   0.617433  -0.006178
    12  H   -0.006129  -0.000174   0.000012  -0.000097  -0.006178   0.634126
 Mulliken charges:
               1
     1  C   -0.068369
     2  C   -0.088129
     3  C   -0.090842
     4  C   -0.106896
     5  C   -0.083111
     6  C   -0.106012
     7  H    0.085249
     8  H    0.082117
     9  H    0.097131
    10  H    0.093951
    11  H    0.095422
    12  H    0.089489
 Sum of Mulliken charges =  -0.00000
 Mulliken charges with hydrogens summed into heavy atoms:
               1
     1  C    0.016880
     2  C    0.001360
     3  C    0.004579
     4  C   -0.012945
     5  C    0.014020
     6  C   -0.023895
 Electronic spatial extent (au):  <R**2>=            479.5802
 Charge=             -0.0000 electrons
 Dipole moment (field-independent basis, Debye):
    X=              0.0937    Y=              0.0308    Z=              0.2341  Tot=              0.2540
 Quadrupole moment (field-independent basis, Debye-Ang):
   XX=            -31.9877   YY=            -31.5173   ZZ=            -38.8255
   XY=              0.5866   XZ=             -0.3787   YZ=              0.7329
 Traceless Quadrupole moment (field-independent basis, Debye-Ang):
   XX=              2.1224   YY=              2.5929   ZZ=             -4.7153
   XY=              0.5866   XZ=             -0.3787   YZ=              0.7329
 Octapole moment (field-independent basis, Debye-Ang**2):
  XXX=              0.2595  YYY=              1.1605  ZZZ=              0.2876  XYY=              0.5950
  XXY=             -1.1294  XXZ=              2.9175  XZZ=             -0.0755  YZZ=             -0.3550
  YYZ=             -0.4789  XYZ=              1.6853
 Hexadecapole moment (field-independent basis, Debye-Ang**3):
 XXXX=           -291.6232 YYYY=           -278.9646 ZZZZ=            -45.3283 XXXY=              0.5399
 XXXZ=             -3.5394 YYYX=              4.9265 YYYZ=              3.5441 ZZZX=             -0.5353
 ZZZY=              0.5024 XXYY=            -95.1650 XXZZ=            -64.7215 YYZZ=            -61.7903
 XXYZ=              2.5854 YYXZ=              0.3910 ZZXY=              0.7368
 N-N= 1.974651924374D+02 E-N=-9.315964866330D+02  KE= 2.292254714544D+02
 1\1\GINC-DESKTOP-PRN5QE3\SP\RB3LYP TD-FC\6-31G(d,p)\C6H6\SHOHEI\10-Nov
 -2023\0\\# TD=(NStates=1) B3LYP/6-31G(d,p)\\EMISPCT\\0,1\C,0,0.3651977
 557,1.3875868866,-0.1445070584\C,0,1.3476292147,0.364743733,0.02240301
 49\C,0,1.0509871233,-1.0046485273,0.0905633155\C,0,-0.3443736319,-1.41
 49676341,-0.1285389158\C,0,-1.3862296715,-0.3441733507,0.0710628274\C,
 0,-1.0218358018,1.0180647698,0.1175678142\H,0,0.5419266257,2.343392837
 2,-0.2526222288\H,0,-1.8468868663,1.8223875368,-0.2325536393\H,0,-2.34
 20693925,-0.7880559317,0.137324994\H,0,-0.693740044,-2.5037560766,-0.4
 72909582\H,0,1.8960657163,-1.7137204107,0.0894333119\H,0,2.3342265157,
 0.7645790604,0.3411195084\\Version=EM64L-G16RevB.01\State=1-A\HF=-232.
 1879972\RMSD=3.307e-09\PG=C01 [X(C6H6)]\\@


 WE'RE IN THE POSITION OF A VISITOR FROM ANOTHER
 DIMENSION WHO COMES TO EARTH AND SEES A CHESS MATCH.
 ASSUMING HE KNOWS IT'S A GAME, HE'S GOT TWO PROBLEMS:
 FIRST, FIGURE OUT THE RULES, AND SECOND, FIGURE OUT HOW TO WIN.
 NINETY PERCENT OF SCIENCE (INCLUDING VIRTUALLY ALL OF CHEMISRY)
 IS IN THAT SECOND CATEGORY.  THEY'RE TRYING TO APPLY
 THE LAWS THAT ARE ALREADY KNOWN.

                     -- SHELDON GLASHOW, 1979
 Job cpu time:       0 days  0 hours  3 minutes  5.1 seconds.
 Elapsed time:       0 days  0 hours  0 minutes 47.0 seconds.
 File lengths (MBytes):  RWF=    116 Int=      0 D2E=      0 Chk=      3 Scr=      1
 Normal termination of Gaussian 16 at Fri Nov 10 22:22:14 2023.
