 Entering Gaussian System, Link 0=g16
 Input=Geometry-430-.com
 Output=Geometry-430-.log
 Initial command:
 /home/shohei/gaussian/g16/l1.exe "/home/shohei/gaussian/scratch/Gau-27987.inp" -scrdir="/home/shohei/gaussian/scratch/"
 Entering Link 1 = /home/shohei/gaussian/g16/l1.exe PID=     27989.
  
 Copyright (c) 1988-2017, Gaussian, Inc.  All Rights Reserved.
  
 This is part of the Gaussian(R) 16 program.  It is based on
 the Gaussian(R) 09 system (copyright 2009, Gaussian, Inc.),
 the Gaussian(R) 03 system (copyright 2003, Gaussian, Inc.),
 the Gaussian(R) 98 system (copyright 1998, Gaussian, Inc.),
 the Gaussian(R) 94 system (copyright 1995, Gaussian, Inc.),
 the Gaussian 92(TM) system (copyright 1992, Gaussian, Inc.),
 the Gaussian 90(TM) system (copyright 1990, Gaussian, Inc.),
 the Gaussian 88(TM) system (copyright 1988, Gaussian, Inc.),
 the Gaussian 86(TM) system (copyright 1986, Carnegie Mellon
 University), and the Gaussian 82(TM) system (copyright 1983,
 Carnegie Mellon University). Gaussian is a federally registered
 trademark of Gaussian, Inc.
  
 This software contains proprietary and confidential information,
 including trade secrets, belonging to Gaussian, Inc.
  
 This software is provided under written license and may be
 used, copied, transmitted, or stored only in accord with that
 written license.
  
 The following legend is applicable only to US Government
 contracts under FAR:
  
                    RESTRICTED RIGHTS LEGEND
  
 Use, reproduction and disclosure by the US Government is
 subject to restrictions as set forth in subparagraphs (a)
 and (c) of the Commercial Computer Software - Restricted
 Rights clause in FAR 52.227-19.
  
 Gaussian, Inc.
 340 Quinnipiac St., Bldg. 40, Wallingford CT 06492
  
  
 ---------------------------------------------------------------
 Warning -- This program may not be used in any manner that
 competes with the business of Gaussian, Inc. or will provide
 assistance to any competitor of Gaussian, Inc.  The licensee
 of this program is prohibited from giving any competitor of
 Gaussian, Inc. access to this program.  By using this program,
 the user acknowledges that Gaussian, Inc. is engaged in the
 business of creating and licensing software in the field of
 computational chemistry and represents and warrants to the
 licensee that it is not a competitor of Gaussian, Inc. and that
 it will not use this program in any manner prohibited above.
 ---------------------------------------------------------------
  

 Cite this work as:
 Gaussian 16, Revision B.01,
 M. J. Frisch, G. W. Trucks, H. B. Schlegel, G. E. Scuseria, 
 M. A. Robb, J. R. Cheeseman, G. Scalmani, V. Barone, 
 G. A. Petersson, H. Nakatsuji, X. Li, M. Caricato, A. V. Marenich, 
 J. Bloino, B. G. Janesko, R. Gomperts, B. Mennucci, H. P. Hratchian, 
 J. V. Ortiz, A. F. Izmaylov, J. L. Sonnenberg, D. Williams-Young, 
 F. Ding, F. Lipparini, F. Egidi, J. Goings, B. Peng, A. Petrone, 
 T. Henderson, D. Ranasinghe, V. G. Zakrzewski, J. Gao, N. Rega, 
 G. Zheng, W. Liang, M. Hada, M. Ehara, K. Toyota, R. Fukuda, 
 J. Hasegawa, M. Ishida, T. Nakajima, Y. Honda, O. Kitao, H. Nakai, 
 T. Vreven, K. Throssell, J. A. Montgomery, Jr., J. E. Peralta, 
 F. Ogliaro, M. J. Bearpark, J. J. Heyd, E. N. Brothers, K. N. Kudin, 
 V. N. Staroverov, T. A. Keith, R. Kobayashi, J. Normand, 
 K. Raghavachari, A. P. Rendell, J. C. Burant, S. S. Iyengar, 
 J. Tomasi, M. Cossi, J. M. Millam, M. Klene, C. Adamo, R. Cammi, 
 J. W. Ochterski, R. L. Martin, K. Morokuma, O. Farkas, 
 J. B. Foresman, and D. J. Fox, Gaussian, Inc., Wallingford CT, 2016.
 
 ******************************************
 Gaussian 16:  EM64L-G16RevB.01 20-Dec-2017
                10-Nov-2023 
 ******************************************
 %nproc=4
 Will use up to    4 processors via shared memory.
 %Mem=2Gb
 ---------------------------------
 # TD=(NStates=1) B3LYP/6-31G(d,p)
 ---------------------------------
 1/38=1,172=1/1;
 2/12=2,17=6,18=5,40=1/2;
 3/5=1,6=6,7=101,11=9,25=1,30=1,74=-5/1,2,3,8;
 4//1;
 5/5=2,38=5/2;
 8/6=1,10=2,108=1/1;
 9/41=1,42=1,70=2/14;
 6/7=2,8=2,9=2,10=2/1;
 99/5=1,9=1/99;
 -------
 EMISPCT
 -------
 Symbolic Z-matrix:
 Charge =  0 Multiplicity = 1
 6                     0.35759   1.37454  -0.03048 
 6                     1.36476   0.41089  -0.01021 
 6                     1.02695  -0.98714   0.01902 
 6                    -0.40432  -1.35782  -0.04107 
 6                    -1.37806  -0.40446   0.01972 
 6                    -0.93722   0.97783   0.05642 
 1                     0.58557   2.35174   0.07793 
 1                    -1.98639   1.55808  -0.35023 
 1                    -2.55991  -0.72246   0.01217 
 1                    -0.55311  -2.30938  -0.04784 
 1                     1.80944  -1.68991   0.10982 
 1                     2.37623   0.62345   0.01497 
 
                          Input orientation:                          
 ---------------------------------------------------------------------
 Center     Atomic      Atomic             Coordinates (Angstroms)
 Number     Number       Type             X           Y           Z
 ---------------------------------------------------------------------
      1          6           0        0.357592    1.374545   -0.030479
      2          6           0        1.364759    0.410886   -0.010210
      3          6           0        1.026948   -0.987144    0.019017
      4          6           0       -0.404319   -1.357815   -0.041068
      5          6           0       -1.378061   -0.404458    0.019719
      6          6           0       -0.937217    0.977829    0.056422
      7          1           0        0.585573    2.351737    0.077932
      8          1           0       -1.986389    1.558084   -0.350228
      9          1           0       -2.559906   -0.722463    0.012172
     10          1           0       -0.553109   -2.309376   -0.047837
     11          1           0        1.809442   -1.689911    0.109825
     12          1           0        2.376231    0.623447    0.014969
 ---------------------------------------------------------------------
                    Distance matrix (angstroms):
                    1          2          3          4          5
     1  C    0.000000
     2  C    1.394071   0.000000
     3  C    2.455211   1.438561   0.000000
     4  C    2.836620   2.501778   1.479707   0.000000
     5  C    2.485932   2.861598   2.474590   1.364097   0.000000
     6  C    1.357006   2.371699   2.778572   2.397648   1.451346
     7  H    1.009274   2.093276   3.368443   3.841201   3.384650
     8  H    2.372798   3.558351   3.961657   3.331815   2.087700
     9  H    3.593195   4.085091   3.596613   2.247902   1.223904
    10  H    3.794859   3.328582   2.061395   0.963147   2.076975
    11  H    3.393883   2.150697   1.055663   2.243611   3.438122
    12  H    2.154325   1.033872   2.101091   3.414673   3.892469
                    6          7          8          9         10
     6  C    0.000000
     7  H    2.051092   0.000000
     8  H    1.266026   2.725471   0.000000
     9  H    2.350759   4.398757   2.379317   0.000000
    10  H    3.311212   4.799833   4.135574   2.559126   0.000000
    11  H    3.829337   4.223008   5.016916   4.476236   2.447497
    12  H    3.332602   2.489459   4.476535   5.116339   4.145652
                   11         12
    11  H    0.000000
    12  H    2.383668   0.000000
 Stoichiometry    C6H6
 Framework group  C1[X(C6H6)]
 Deg. of freedom    30
 Full point group                 C1      NOp   1
 Largest Abelian subgroup         C1      NOp   1
 Largest concise Abelian subgroup C1      NOp   1
                         Standard orientation:                         
 ---------------------------------------------------------------------
 Center     Atomic      Atomic             Coordinates (Angstroms)
 Number     Number       Type             X           Y           Z
 ---------------------------------------------------------------------
      1          6           0        0.801003   -1.176956    0.025922
      2          6           0        1.427662    0.068313    0.019840
      3          6           0        0.641652    1.272858   -0.006953
      4          6           0       -0.831566    1.142726    0.040238
      5          6           0       -1.429520   -0.081058   -0.034353
      6          6           0       -0.551157   -1.235804   -0.072380
      7          1           0        1.343781   -2.020689   -0.084264
      8          1           0       -1.348859   -2.136670    0.321238
      9          1           0       -2.649657   -0.176963   -0.037401
     10          1           0       -1.290320    1.989550    0.049480
     11          1           0        1.144499    2.197613   -0.086925
     12          1           0        2.452109    0.206692    0.003980
 ---------------------------------------------------------------------
 Rotational constants (GHZ):           5.7515565           5.3889156           2.7890503
 Standard basis: 6-31G(d,p) (6D, 7F)
 There are   120 symmetry adapted cartesian basis functions of A   symmetry.
 There are   120 symmetry adapted basis functions of A   symmetry.
   120 basis functions,   210 primitive gaussians,   120 cartesian basis functions
    21 alpha electrons       21 beta electrons
       nuclear repulsion energy       201.4749712539 Hartrees.
 NAtoms=   12 NActive=   12 NUniq=   12 SFac= 1.00D+00 NAtFMM=   60 NAOKFM=F Big=F
 Integral buffers will be    131072 words long.
 Regular integral format.
 Two-electron integral symmetry is turned on.
 One-electron integrals computed using PRISM.
 NBasis=   120 RedAO= T EigKep=  7.53D-04  NBF=   120
 NBsUse=   120 1.00D-06 EigRej= -1.00D+00 NBFU=   120
 ExpMin= 1.61D-01 ExpMax= 3.05D+03 ExpMxC= 4.57D+02 IAcc=3 IRadAn=         5 AccDes= 0.00D+00
 Harris functional with IExCor=  402 and IRadAn=       5 diagonalized for initial guess.
 HarFok:  IExCor=  402 AccDes= 0.00D+00 IRadAn=         5 IDoV= 1 UseB2=F ITyADJ=14
 ICtDFT=  3500011 ScaDFX=  1.000000  1.000000  1.000000  1.000000
 FoFCou: FMM=F IPFlag=           0 FMFlag=      100000 FMFlg1=           0
         NFxFlg=           0 DoJE=T BraDBF=F KetDBF=T FulRan=T
         wScrn=  0.000000 ICntrl=       500 IOpCl=  0 I1Cent=   200000004 NGrid=           0
         NMat0=    1 NMatS0=      1 NMatT0=    0 NMatD0=    1 NMtDS0=    0 NMtDT0=    0
 Petite list used in FoFCou.
 Keep R1 ints in memory in canonical form, NReq=30147728.
 Requested convergence on RMS density matrix=1.00D-08 within 128 cycles.
 Requested convergence on MAX density matrix=1.00D-06.
 Requested convergence on             energy=1.00D-06.
 No special actions if energy rises.
 Integral accuracy reduced to 1.0D-05 until final iterations.
 Initial convergence to 1.0D-05 achieved.  Increase integral accuracy.
 SCF Done:  E(RB3LYP) =  -232.183374259     A.U. after   13 cycles
            NFock= 13  Conv=0.95D-08     -V/T= 2.0101
 DoSCS=F DFT=T ScalE2(SS,OS)=  1.000000  1.000000
 ExpMin= 1.61D-01 ExpMax= 3.05D+03 ExpMxC= 4.57D+02 IAcc=3 IRadAn=         5 AccDes= 0.00D+00
 HarFok:  IExCor=  205 AccDes= 0.00D+00 IRadAn=         5 IDoV=-2 UseB2=F ITyADJ=14
 ICtDFT= 12500011 ScaDFX=  1.000000  1.000000  1.000000  1.000000
 Range of M.O.s used for correlation:     7   120
 NBasis=   120 NAE=    21 NBE=    21 NFC=     6 NFV=     0
 NROrb=    114 NOA=    15 NOB=    15 NVA=    99 NVB=    99
 Keep R1, R2, and R3 ints in memory in canonical form, NReq=84032236.
 Orbital symmetries:
       Occupied  (A) (A) (A) (A) (A) (A) (A) (A) (A) (A) (A) (A)
                 (A) (A) (A) (A) (A) (A) (A) (A) (A)
       Virtual   (A) (A) (A) (A) (A) (A) (A) (A) (A) (A) (A) (A)
                 (A) (A) (A) (A) (A) (A) (A) (A) (A) (A) (A) (A)
                 (A) (A) (A) (A) (A) (A) (A) (A) (A) (A) (A) (A)
                 (A) (A) (A) (A) (A) (A) (A) (A) (A) (A) (A) (A)
                 (A) (A) (A) (A) (A) (A) (A) (A) (A) (A) (A) (A)
                 (A) (A) (A) (A) (A) (A) (A) (A) (A) (A) (A) (A)
                 (A) (A) (A) (A) (A) (A) (A) (A) (A) (A) (A) (A)
                 (A) (A) (A) (A) (A) (A) (A) (A) (A) (A) (A) (A)
                 (A) (A) (A)
     4 initial guesses have been made.
 Convergence on wavefunction:    0.001000000000000
 Iteration     1 Dimension     4 NMult     0 NNew      4
 CISAX will form     4 AO SS matrices at one time.
 New state      1 was old state      2
 Iteration     2 Dimension     6 NMult     4 NNew      2
 Iteration     3 Dimension     8 NMult     6 NNew      2
 Iteration     4 Dimension    10 NMult     8 NNew      2
 Iteration     5 Dimension    12 NMult    10 NNew      2
 ***********************************************************************
 Excited states from <AA,BB:AA,BB> singles matrix:
 ***********************************************************************
 
 Ground to excited state transition densities written to RWF  633
 Ground to excited state transition electric dipole moments (Au):
       state          X           Y           Z        Dip. S.      Osc.
         1         0.0469      0.0248      0.0078      0.0029      0.0004
 Ground to excited state transition velocity dipole moments (Au):
       state          X           Y           Z        Dip. S.      Osc.
         1        -0.0109     -0.0047     -0.0007      0.0001      0.0005
 Ground to excited state transition magnetic dipole moments (Au):
       state          X           Y           Z
         1         0.0143      0.0234      0.0400
 Ground to excited state transition velocity quadrupole moments (Au):
       state          XX          YY          ZZ          XY          XZ          YZ
         1        -0.0180      0.0040      0.0062     -0.0013     -0.0051      0.0082
 <0|del|b> * <b|rxdel|0> + <0|del|b> * <b|delr+rdel|0>
 Rotatory Strengths (R) in cgs (10**-40 erg-esu-cm/Gauss)
       state          XX          YY          ZZ    R(velocity)    E-M Angle
         1        -0.2940     -0.5002     -0.2779     -0.3574      120.59
 1/2[<0|r|b>*<b|rxdel|0> + (<0|rxdel|b>*<b|r|0>)*]
 Rotatory Strengths (R) in cgs (10**-40 erg-esu-cm/Gauss)
       state          XX          YY          ZZ     R(length)
         1        -0.4744     -0.4107     -0.2204     -0.3685
  1/2[<0|del|b>*<b|r|0> + (<0|r|b>*<b|del|0>)*] (Au)
       state          X           Y           Z        Dip. S.   Osc.(frdel)
         1        -0.0005     -0.0001     -0.0000      0.0006      0.0004

 Excitation energies and oscillator strengths:
 
 Excited State   1:      Singlet-A      5.2581 eV  235.80 nm  f=0.0004  <S**2>=0.000
      20 -> 22         0.48449
      21 -> 23         0.51024
 This state for optimization and/or second-order correction.
 Total Energy, E(TD-HF/TD-DFT) =  -231.990141835    
 Copying the excited state density for this state as the 1-particle RhoCI density.
 SavETr:  write IOETrn=   770 NScale= 10 NData=  16 NLR=1 NState=    1 LETran=      28.

 **********************************************************************

            Population analysis using the SCF Density.

 **********************************************************************

 Orbital symmetries:
       Occupied  (A) (A) (A) (A) (A) (A) (A) (A) (A) (A) (A) (A)
                 (A) (A) (A) (A) (A) (A) (A) (A) (A)
       Virtual   (A) (A) (A) (A) (A) (A) (A) (A) (A) (A) (A) (A)
                 (A) (A) (A) (A) (A) (A) (A) (A) (A) (A) (A) (A)
                 (A) (A) (A) (A) (A) (A) (A) (A) (A) (A) (A) (A)
                 (A) (A) (A) (A) (A) (A) (A) (A) (A) (A) (A) (A)
                 (A) (A) (A) (A) (A) (A) (A) (A) (A) (A) (A) (A)
                 (A) (A) (A) (A) (A) (A) (A) (A) (A) (A) (A) (A)
                 (A) (A) (A) (A) (A) (A) (A) (A) (A) (A) (A) (A)
                 (A) (A) (A) (A) (A) (A) (A) (A) (A) (A) (A) (A)
                 (A) (A) (A)
 The electronic state is 1-A.
 Alpha  occ. eigenvalues --  -10.20366 -10.20310 -10.19603 -10.18921 -10.18371
 Alpha  occ. eigenvalues --  -10.18206  -0.84252  -0.75094  -0.72901  -0.60771
 Alpha  occ. eigenvalues --   -0.59335  -0.51513  -0.47130  -0.44053  -0.42427
 Alpha  occ. eigenvalues --   -0.39913  -0.36046  -0.33763  -0.31936  -0.25455
 Alpha  occ. eigenvalues --   -0.23696
 Alpha virt. eigenvalues --   -0.01461   0.00137   0.06878   0.12771   0.13791
 Alpha virt. eigenvalues --    0.15420   0.16888   0.18569   0.19843   0.26679
 Alpha virt. eigenvalues --    0.29164   0.30815   0.33259   0.46387   0.49356
 Alpha virt. eigenvalues --    0.52662   0.54550   0.55584   0.57597   0.59624
 Alpha virt. eigenvalues --    0.60541   0.60795   0.61171   0.62551   0.64763
 Alpha virt. eigenvalues --    0.66349   0.67419   0.74015   0.75455   0.77972
 Alpha virt. eigenvalues --    0.83578   0.85670   0.90005   0.91143   0.93811
 Alpha virt. eigenvalues --    0.94870   0.96368   0.99074   1.07403   1.08382
 Alpha virt. eigenvalues --    1.12853   1.13299   1.26088   1.27164   1.34524
 Alpha virt. eigenvalues --    1.39309   1.40850   1.42459   1.44234   1.59354
 Alpha virt. eigenvalues --    1.69103   1.72437   1.73138   1.78611   1.90714
 Alpha virt. eigenvalues --    1.93637   1.94526   1.96843   1.99392   2.00022
 Alpha virt. eigenvalues --    2.04395   2.04958   2.06246   2.17925   2.26683
 Alpha virt. eigenvalues --    2.28138   2.31708   2.36727   2.39377   2.40207
 Alpha virt. eigenvalues --    2.44259   2.44766   2.45760   2.48950   2.52637
 Alpha virt. eigenvalues --    2.53762   2.54399   2.55541   2.63690   2.69465
 Alpha virt. eigenvalues --    2.71695   2.78172   2.78419   2.89172   3.07549
 Alpha virt. eigenvalues --    3.12579   3.16732   3.26979   3.38135   3.39249
 Alpha virt. eigenvalues --    3.51137   3.74143   3.95068   4.10858   4.16319
 Alpha virt. eigenvalues --    4.17167   4.42314   4.44010   4.78732
          Condensed to atoms (all electrons):
               1          2          3          4          5          6
     1  C    4.779463   0.528738  -0.030719  -0.034397  -0.043468   0.548822
     2  C    0.528738   4.809423   0.538457  -0.027210  -0.037650  -0.023088
     3  C   -0.030719   0.538457   4.880938   0.512275  -0.029215  -0.050346
     4  C   -0.034397  -0.027210   0.512275   4.744328   0.574518  -0.032951
     5  C   -0.043468  -0.037650  -0.029215   0.574518   4.885244   0.480534
     6  C    0.548822  -0.023088  -0.050346  -0.032951   0.480534   4.898850
     7  H    0.382034  -0.047623   0.005394   0.000379   0.005041  -0.046747
     8  H   -0.024486   0.002924   0.000921   0.004440  -0.048804   0.336051
     9  H    0.002790   0.000345   0.003156  -0.035142   0.354450  -0.030648
    10  H    0.000298   0.006514  -0.053576   0.378060  -0.055726   0.008117
    11  H    0.005300  -0.043084   0.372673  -0.039834   0.004783   0.000125
    12  H   -0.046774   0.375229  -0.048068   0.005402   0.000404   0.006198
               7          8          9         10         11         12
     1  C    0.382034  -0.024486   0.002790   0.000298   0.005300  -0.046774
     2  C   -0.047623   0.002924   0.000345   0.006514  -0.043084   0.375229
     3  C    0.005394   0.000921   0.003156  -0.053576   0.372673  -0.048068
     4  C    0.000379   0.004440  -0.035142   0.378060  -0.039834   0.005402
     5  C    0.005041  -0.048804   0.354450  -0.055726   0.004783   0.000404
     6  C   -0.046747   0.336051  -0.030648   0.008117   0.000125   0.006198
     7  H    0.622272  -0.004362  -0.000133   0.000020  -0.000209  -0.006851
     8  H   -0.004362   0.673291  -0.006571  -0.000366   0.000010  -0.000125
     9  H   -0.000133  -0.006571   0.631646  -0.005570  -0.000111   0.000011
    10  H    0.000020  -0.000366  -0.005570   0.658780  -0.006389  -0.000250
    11  H   -0.000209   0.000010  -0.000111  -0.006389   0.623987  -0.006784
    12  H   -0.006851  -0.000125   0.000011  -0.000250  -0.006784   0.637511
 Mulliken charges:
               1
     1  C   -0.067601
     2  C   -0.082975
     3  C   -0.101890
     4  C   -0.049867
     5  C   -0.090111
     6  C   -0.094915
     7  H    0.090785
     8  H    0.067077
     9  H    0.085778
    10  H    0.070088
    11  H    0.089534
    12  H    0.084097
 Sum of Mulliken charges =  -0.00000
 Mulliken charges with hydrogens summed into heavy atoms:
               1
     1  C    0.023184
     2  C    0.001122
     3  C   -0.012356
     4  C    0.020222
     5  C   -0.004333
     6  C   -0.027838
 Electronic spatial extent (au):  <R**2>=            465.8075
 Charge=             -0.0000 electrons
 Dipole moment (field-independent basis, Debye):
    X=              0.1745    Y=              0.3907    Z=              0.0760  Tot=              0.4346
 Quadrupole moment (field-independent basis, Debye-Ang):
   XX=            -30.9600   YY=            -32.4738   ZZ=            -38.5804
   XY=             -0.0441   XZ=             -0.5382   YZ=             -0.4202
 Traceless Quadrupole moment (field-independent basis, Debye-Ang):
   XX=              3.0447   YY=              1.5309   ZZ=             -4.5756
   XY=             -0.0441   XZ=             -0.5382   YZ=             -0.4202
 Octapole moment (field-independent basis, Debye-Ang**2):
  XXX=              0.2599  YYY=              5.0240  ZZZ=              0.0227  XYY=              2.0043
  XXY=              0.0725  XXZ=              0.1867  XZZ=              0.5333  YZZ=              0.2572
  YYZ=              0.4754  XYZ=              0.7063
 Hexadecapole moment (field-independent basis, Debye-Ang**3):
 XXXX=           -280.4261 YYYY=           -276.3674 ZZZZ=            -41.1014 XXXY=              1.0986
 XXXZ=             -1.1080 YYYX=             -3.5603 YYYZ=             -2.2996 ZZZX=             -0.4740
 ZZZY=             -0.2275 XXYY=            -91.8624 XXZZ=            -63.3252 YYZZ=            -59.5055
 XXYZ=             -0.9393 YYXZ=             -2.9071 ZZXY=             -0.8459
 N-N= 2.014749712539D+02 E-N=-9.400773042210D+02  KE= 2.298554772946D+02
 1\1\GINC-DESKTOP-PRN5QE3\SP\RB3LYP TD-FC\6-31G(d,p)\C6H6\SHOHEI\10-Nov
 -2023\0\\# TD=(NStates=1) B3LYP/6-31G(d,p)\\EMISPCT\\0,1\C,0,0.3575917
 26,1.374544748,-0.0304793423\C,0,1.3647587565,0.4108857999,-0.01020974
 64\C,0,1.0269483437,-0.9871441016,0.0190171272\C,0,-0.404318638,-1.357
 8153912,-0.0410682117\C,0,-1.3780611688,-0.4044575177,0.0197194805\C,0
 ,-0.937216849,0.9778285886,0.0564224202\H,0,0.5855730535,2.351737123,0
 .0779319533\H,0,-1.9863887868,1.5580835005,-0.3502279926\H,0,-2.559905
 706,-0.7224628175,0.012172492\H,0,-0.5531092045,-2.3093762433,-0.04783
 73262\H,0,1.8094416124,-1.6899112807,0.1098247392\H,0,2.376230634,0.62
 34469846,0.0149685246\\Version=EM64L-G16RevB.01\State=1-A\HF=-232.1833
 743\RMSD=9.536e-09\PG=C01 [X(C6H6)]\\@


 ON A CLEAR DISK YOU CAN SEEK FOREVER.
 Job cpu time:       0 days  0 hours  3 minutes  5.6 seconds.
 Elapsed time:       0 days  0 hours  0 minutes 47.1 seconds.
 File lengths (MBytes):  RWF=    116 Int=      0 D2E=      0 Chk=      3 Scr=      1
 Normal termination of Gaussian 16 at Fri Nov 10 22:04:32 2023.
