 Entering Gaussian System, Link 0=g16
 Input=Geometry-269-.com
 Output=Geometry-269-.log
 Initial command:
 /home/shohei/gaussian/g16/l1.exe "/home/shohei/gaussian/scratch/Gau-14327.inp" -scrdir="/home/shohei/gaussian/scratch/"
 Entering Link 1 = /home/shohei/gaussian/g16/l1.exe PID=     14329.
  
 Copyright (c) 1988-2017, Gaussian, Inc.  All Rights Reserved.
  
 This is part of the Gaussian(R) 16 program.  It is based on
 the Gaussian(R) 09 system (copyright 2009, Gaussian, Inc.),
 the Gaussian(R) 03 system (copyright 2003, Gaussian, Inc.),
 the Gaussian(R) 98 system (copyright 1998, Gaussian, Inc.),
 the Gaussian(R) 94 system (copyright 1995, Gaussian, Inc.),
 the Gaussian 92(TM) system (copyright 1992, Gaussian, Inc.),
 the Gaussian 90(TM) system (copyright 1990, Gaussian, Inc.),
 the Gaussian 88(TM) system (copyright 1988, Gaussian, Inc.),
 the Gaussian 86(TM) system (copyright 1986, Carnegie Mellon
 University), and the Gaussian 82(TM) system (copyright 1983,
 Carnegie Mellon University). Gaussian is a federally registered
 trademark of Gaussian, Inc.
  
 This software contains proprietary and confidential information,
 including trade secrets, belonging to Gaussian, Inc.
  
 This software is provided under written license and may be
 used, copied, transmitted, or stored only in accord with that
 written license.
  
 The following legend is applicable only to US Government
 contracts under FAR:
  
                    RESTRICTED RIGHTS LEGEND
  
 Use, reproduction and disclosure by the US Government is
 subject to restrictions as set forth in subparagraphs (a)
 and (c) of the Commercial Computer Software - Restricted
 Rights clause in FAR 52.227-19.
  
 Gaussian, Inc.
 340 Quinnipiac St., Bldg. 40, Wallingford CT 06492
  
  
 ---------------------------------------------------------------
 Warning -- This program may not be used in any manner that
 competes with the business of Gaussian, Inc. or will provide
 assistance to any competitor of Gaussian, Inc.  The licensee
 of this program is prohibited from giving any competitor of
 Gaussian, Inc. access to this program.  By using this program,
 the user acknowledges that Gaussian, Inc. is engaged in the
 business of creating and licensing software in the field of
 computational chemistry and represents and warrants to the
 licensee that it is not a competitor of Gaussian, Inc. and that
 it will not use this program in any manner prohibited above.
 ---------------------------------------------------------------
  

 Cite this work as:
 Gaussian 16, Revision B.01,
 M. J. Frisch, G. W. Trucks, H. B. Schlegel, G. E. Scuseria, 
 M. A. Robb, J. R. Cheeseman, G. Scalmani, V. Barone, 
 G. A. Petersson, H. Nakatsuji, X. Li, M. Caricato, A. V. Marenich, 
 J. Bloino, B. G. Janesko, R. Gomperts, B. Mennucci, H. P. Hratchian, 
 J. V. Ortiz, A. F. Izmaylov, J. L. Sonnenberg, D. Williams-Young, 
 F. Ding, F. Lipparini, F. Egidi, J. Goings, B. Peng, A. Petrone, 
 T. Henderson, D. Ranasinghe, V. G. Zakrzewski, J. Gao, N. Rega, 
 G. Zheng, W. Liang, M. Hada, M. Ehara, K. Toyota, R. Fukuda, 
 J. Hasegawa, M. Ishida, T. Nakajima, Y. Honda, O. Kitao, H. Nakai, 
 T. Vreven, K. Throssell, J. A. Montgomery, Jr., J. E. Peralta, 
 F. Ogliaro, M. J. Bearpark, J. J. Heyd, E. N. Brothers, K. N. Kudin, 
 V. N. Staroverov, T. A. Keith, R. Kobayashi, J. Normand, 
 K. Raghavachari, A. P. Rendell, J. C. Burant, S. S. Iyengar, 
 J. Tomasi, M. Cossi, J. M. Millam, M. Klene, C. Adamo, R. Cammi, 
 J. W. Ochterski, R. L. Martin, K. Morokuma, O. Farkas, 
 J. B. Foresman, and D. J. Fox, Gaussian, Inc., Wallingford CT, 2016.
 
 ******************************************
 Gaussian 16:  EM64L-G16RevB.01 20-Dec-2017
                10-Nov-2023 
 ******************************************
 %nproc=4
 Will use up to    4 processors via shared memory.
 %Mem=2Gb
 ---------------------------------
 # TD=(NStates=1) B3LYP/6-31G(d,p)
 ---------------------------------
 1/38=1,172=1/1;
 2/12=2,17=6,18=5,40=1/2;
 3/5=1,6=6,7=101,11=9,25=1,30=1,74=-5/1,2,3,8;
 4//1;
 5/5=2,38=5/2;
 8/6=1,10=2,108=1/1;
 9/41=1,42=1,70=2/14;
 6/7=2,8=2,9=2,10=2/1;
 99/5=1,9=1/99;
 -------
 EMISPCT
 -------
 Symbolic Z-matrix:
 Charge =  0 Multiplicity = 1
 6                     0.40156   1.41329   0.00168 
 6                     1.36909   0.37716   0.03305 
 6                     1.00481  -0.95153  -0.06578 
 6                    -0.3602   -1.34338   0.00471 
 6                    -1.37946  -0.45067   0.08747 
 6                    -1.0577    0.97924  -0.0826 
 1                     0.67248   2.31013   0.34908 
 1                    -1.89691   1.86227  -0.1575 
 1                    -2.47119  -0.54301  -0.06483 
 1                    -0.47268  -2.51865   0.12443 
 1                     1.77198  -1.82919  -0.04407 
 1                     2.59977   0.47485   0.08642 
 
                          Input orientation:                          
 ---------------------------------------------------------------------
 Center     Atomic      Atomic             Coordinates (Angstroms)
 Number     Number       Type             X           Y           Z
 ---------------------------------------------------------------------
      1          6           0        0.401558    1.413287    0.001679
      2          6           0        1.369094    0.377164    0.033047
      3          6           0        1.004810   -0.951532   -0.065784
      4          6           0       -0.360200   -1.343376    0.004708
      5          6           0       -1.379456   -0.450673    0.087470
      6          6           0       -1.057702    0.979243   -0.082598
      7          1           0        0.672475    2.310128    0.349076
      8          1           0       -1.896915    1.862266   -0.157501
      9          1           0       -2.471190   -0.543007   -0.064831
     10          1           0       -0.472676   -2.518651    0.124433
     11          1           0        1.771978   -1.829189   -0.044067
     12          1           0        2.599767    0.474850    0.086421
 ---------------------------------------------------------------------
                    Distance matrix (angstroms):
                    1          2          3          4          5
     1  C    0.000000
     2  C    1.417977   0.000000
     3  C    2.441482   1.381269   0.000000
     4  C    2.859978   2.439573   1.421887   0.000000
     5  C    2.579481   2.871028   2.441121   1.357443   0.000000
     6  C    1.524774   2.503040   2.825266   2.426663   1.475503
     7  H    0.999202   2.078822   3.304691   3.812230   3.449766
     8  H    2.347318   3.592861   4.043004   3.558644   2.382743
     9  H    3.476232   3.950199   3.499924   2.258695   1.106166
    10  H    4.029825   3.433105   2.162177   1.186699   2.258350
    11  H    3.520482   2.244161   1.165890   2.187368   3.442259
    12  H    2.391645   1.235698   2.145139   3.474770   4.085439
                    6          7          8          9         10
     6  C    0.000000
     7  H    2.225109   0.000000
     8  H    1.220500   2.656872   0.000000
     9  H    2.077380   4.265481   2.474615   0.000000
    10  H    3.552517   4.967790   4.615233   2.816566   0.000000
    11  H    3.986962   4.300862   5.205813   4.433866   2.354193
    12  H    3.695951   2.674263   4.712172   5.174313   4.289802
                   11         12
    11  H    0.000000
    12  H    2.451705   0.000000
 Stoichiometry    C6H6
 Framework group  C1[X(C6H6)]
 Deg. of freedom    30
 Full point group                 C1      NOp   1
 Largest Abelian subgroup         C1      NOp   1
 Largest concise Abelian subgroup C1      NOp   1
                         Standard orientation:                         
 ---------------------------------------------------------------------
 Center     Atomic      Atomic             Coordinates (Angstroms)
 Number     Number       Type             X           Y           Z
 ---------------------------------------------------------------------
      1          6           0       -0.241244   -1.451094   -0.007042
      2          6           0       -1.317363   -0.528053    0.017909
      3          6           0       -1.101092    0.832909   -0.076500
      4          6           0        0.211791    1.372748    0.005202
      5          6           0        1.322617    0.597724    0.094953
      6          6           0        1.161849   -0.858605   -0.079312
      7          1           0       -0.414264   -2.373044    0.337164
      8          1           0        2.093883   -1.643543   -0.148630
      9          1           0        2.398648    0.810196   -0.048634
     10          1           0        0.193035    2.553013    0.127180
     11          1           0       -1.960520    1.620566   -0.059806
     12          1           0       -2.530129   -0.760966    0.061471
 ---------------------------------------------------------------------
 Rotational constants (GHZ):           5.5233252           5.2955405           2.7155856
 Standard basis: 6-31G(d,p) (6D, 7F)
 There are   120 symmetry adapted cartesian basis functions of A   symmetry.
 There are   120 symmetry adapted basis functions of A   symmetry.
   120 basis functions,   210 primitive gaussians,   120 cartesian basis functions
    21 alpha electrons       21 beta electrons
       nuclear repulsion energy       198.0482989326 Hartrees.
 NAtoms=   12 NActive=   12 NUniq=   12 SFac= 1.00D+00 NAtFMM=   60 NAOKFM=F Big=F
 Integral buffers will be    131072 words long.
 Regular integral format.
 Two-electron integral symmetry is turned on.
 One-electron integrals computed using PRISM.
 NBasis=   120 RedAO= T EigKep=  9.48D-04  NBF=   120
 NBsUse=   120 1.00D-06 EigRej= -1.00D+00 NBFU=   120
 ExpMin= 1.61D-01 ExpMax= 3.05D+03 ExpMxC= 4.57D+02 IAcc=3 IRadAn=         5 AccDes= 0.00D+00
 Harris functional with IExCor=  402 and IRadAn=       5 diagonalized for initial guess.
 HarFok:  IExCor=  402 AccDes= 0.00D+00 IRadAn=         5 IDoV= 1 UseB2=F ITyADJ=14
 ICtDFT=  3500011 ScaDFX=  1.000000  1.000000  1.000000  1.000000
 FoFCou: FMM=F IPFlag=           0 FMFlag=      100000 FMFlg1=           0
         NFxFlg=           0 DoJE=T BraDBF=F KetDBF=T FulRan=T
         wScrn=  0.000000 ICntrl=       500 IOpCl=  0 I1Cent=   200000004 NGrid=           0
         NMat0=    1 NMatS0=      1 NMatT0=    0 NMatD0=    1 NMtDS0=    0 NMtDT0=    0
 Petite list used in FoFCou.
 Keep R1 ints in memory in canonical form, NReq=30147728.
 Requested convergence on RMS density matrix=1.00D-08 within 128 cycles.
 Requested convergence on MAX density matrix=1.00D-06.
 Requested convergence on             energy=1.00D-06.
 No special actions if energy rises.
 Integral accuracy reduced to 1.0D-05 until final iterations.
 Initial convergence to 1.0D-05 achieved.  Increase integral accuracy.
 SCF Done:  E(RB3LYP) =  -232.182124978     A.U. after   13 cycles
            NFock= 13  Conv=0.94D-08     -V/T= 2.0133
 DoSCS=F DFT=T ScalE2(SS,OS)=  1.000000  1.000000
 ExpMin= 1.61D-01 ExpMax= 3.05D+03 ExpMxC= 4.57D+02 IAcc=3 IRadAn=         5 AccDes= 0.00D+00
 HarFok:  IExCor=  205 AccDes= 0.00D+00 IRadAn=         5 IDoV=-2 UseB2=F ITyADJ=14
 ICtDFT= 12500011 ScaDFX=  1.000000  1.000000  1.000000  1.000000
 Range of M.O.s used for correlation:     7   120
 NBasis=   120 NAE=    21 NBE=    21 NFC=     6 NFV=     0
 NROrb=    114 NOA=    15 NOB=    15 NVA=    99 NVB=    99
 Keep R1, R2, and R3 ints in memory in canonical form, NReq=84032236.
 Orbital symmetries:
       Occupied  (A) (A) (A) (A) (A) (A) (A) (A) (A) (A) (A) (A)
                 (A) (A) (A) (A) (A) (A) (A) (A) (A)
       Virtual   (A) (A) (A) (A) (A) (A) (A) (A) (A) (A) (A) (A)
                 (A) (A) (A) (A) (A) (A) (A) (A) (A) (A) (A) (A)
                 (A) (A) (A) (A) (A) (A) (A) (A) (A) (A) (A) (A)
                 (A) (A) (A) (A) (A) (A) (A) (A) (A) (A) (A) (A)
                 (A) (A) (A) (A) (A) (A) (A) (A) (A) (A) (A) (A)
                 (A) (A) (A) (A) (A) (A) (A) (A) (A) (A) (A) (A)
                 (A) (A) (A) (A) (A) (A) (A) (A) (A) (A) (A) (A)
                 (A) (A) (A) (A) (A) (A) (A) (A) (A) (A) (A) (A)
                 (A) (A) (A)
     4 initial guesses have been made.
 Convergence on wavefunction:    0.001000000000000
 Iteration     1 Dimension     4 NMult     0 NNew      4
 CISAX will form     4 AO SS matrices at one time.
 New state      1 was old state      2
 Iteration     2 Dimension     6 NMult     4 NNew      2
 Iteration     3 Dimension     8 NMult     6 NNew      2
 Iteration     4 Dimension    10 NMult     8 NNew      2
 Iteration     5 Dimension    12 NMult    10 NNew      2
 ***********************************************************************
 Excited states from <AA,BB:AA,BB> singles matrix:
 ***********************************************************************
 
 Ground to excited state transition densities written to RWF  633
 Ground to excited state transition electric dipole moments (Au):
       state          X           Y           Z        Dip. S.      Osc.
         1        -0.0343     -0.0312     -0.0036      0.0022      0.0003
 Ground to excited state transition velocity dipole moments (Au):
       state          X           Y           Z        Dip. S.      Osc.
         1         0.0072      0.0084      0.0004      0.0001      0.0004
 Ground to excited state transition magnetic dipole moments (Au):
       state          X           Y           Z
         1         0.0146      0.0098     -0.0491
 Ground to excited state transition velocity quadrupole moments (Au):
       state          XX          YY          ZZ          XY          XZ          YZ
         1        -0.0037     -0.0068      0.0048      0.0046     -0.0212     -0.0106
 <0|del|b> * <b|rxdel|0> + <0|del|b> * <b|delr+rdel|0>
 Rotatory Strengths (R) in cgs (10**-40 erg-esu-cm/Gauss)
       state          XX          YY          ZZ    R(velocity)    E-M Angle
         1         0.4619      0.0186      0.1622      0.2142       72.94
 1/2[<0|r|b>*<b|rxdel|0> + (<0|rxdel|b>*<b|r|0>)*]
 Rotatory Strengths (R) in cgs (10**-40 erg-esu-cm/Gauss)
       state          XX          YY          ZZ     R(length)
         1         0.3539      0.2151     -0.1237      0.1484
  1/2[<0|del|b>*<b|r|0> + (<0|r|b>*<b|del|0>)*] (Au)
       state          X           Y           Z        Dip. S.   Osc.(frdel)
         1        -0.0002     -0.0003     -0.0000      0.0005      0.0003

 Excitation energies and oscillator strengths:
 
 Excited State   1:      Singlet-A      5.0984 eV  243.18 nm  f=0.0003  <S**2>=0.000
      20 -> 22        -0.49143
      21 -> 23         0.50512
 This state for optimization and/or second-order correction.
 Total Energy, E(TD-HF/TD-DFT) =  -231.994762847    
 Copying the excited state density for this state as the 1-particle RhoCI density.
 SavETr:  write IOETrn=   770 NScale= 10 NData=  16 NLR=1 NState=    1 LETran=      28.

 **********************************************************************

            Population analysis using the SCF Density.

 **********************************************************************

 Orbital symmetries:
       Occupied  (A) (A) (A) (A) (A) (A) (A) (A) (A) (A) (A) (A)
                 (A) (A) (A) (A) (A) (A) (A) (A) (A)
       Virtual   (A) (A) (A) (A) (A) (A) (A) (A) (A) (A) (A) (A)
                 (A) (A) (A) (A) (A) (A) (A) (A) (A) (A) (A) (A)
                 (A) (A) (A) (A) (A) (A) (A) (A) (A) (A) (A) (A)
                 (A) (A) (A) (A) (A) (A) (A) (A) (A) (A) (A) (A)
                 (A) (A) (A) (A) (A) (A) (A) (A) (A) (A) (A) (A)
                 (A) (A) (A) (A) (A) (A) (A) (A) (A) (A) (A) (A)
                 (A) (A) (A) (A) (A) (A) (A) (A) (A) (A) (A) (A)
                 (A) (A) (A) (A) (A) (A) (A) (A) (A) (A) (A) (A)
                 (A) (A) (A)
 The electronic state is 1-A.
 Alpha  occ. eigenvalues --  -10.22314 -10.20688 -10.20352 -10.20223 -10.19823
 Alpha  occ. eigenvalues --  -10.19761  -0.83726  -0.74285  -0.72307  -0.60015
 Alpha  occ. eigenvalues --   -0.58081  -0.50580  -0.45002  -0.44013  -0.40415
 Alpha  occ. eigenvalues --   -0.39787  -0.35902  -0.34130  -0.31674  -0.25545
 Alpha  occ. eigenvalues --   -0.23508
 Alpha virt. eigenvalues --   -0.02201  -0.00252   0.06132   0.10895   0.11911
 Alpha virt. eigenvalues --    0.13617   0.15760   0.17148   0.17559   0.25457
 Alpha virt. eigenvalues --    0.27844   0.29784   0.33041   0.45680   0.48844
 Alpha virt. eigenvalues --    0.51089   0.52485   0.54640   0.57068   0.59597
 Alpha virt. eigenvalues --    0.60170   0.60591   0.61660   0.62962   0.63886
 Alpha virt. eigenvalues --    0.65768   0.66850   0.72709   0.75954   0.76812
 Alpha virt. eigenvalues --    0.78671   0.80254   0.84588   0.88988   0.91057
 Alpha virt. eigenvalues --    0.93490   0.94762   0.99387   1.03748   1.09735
 Alpha virt. eigenvalues --    1.09860   1.14400   1.20309   1.27762   1.30388
 Alpha virt. eigenvalues --    1.36298   1.41499   1.45077   1.46655   1.56119
 Alpha virt. eigenvalues --    1.68468   1.69995   1.72307   1.76501   1.78834
 Alpha virt. eigenvalues --    1.83359   1.91802   1.92917   1.98806   1.99784
 Alpha virt. eigenvalues --    2.01221   2.05001   2.06798   2.17376   2.20652
 Alpha virt. eigenvalues --    2.23932   2.28201   2.33561   2.34910   2.37132
 Alpha virt. eigenvalues --    2.39325   2.40224   2.40854   2.42472   2.45342
 Alpha virt. eigenvalues --    2.48342   2.50561   2.51981   2.58620   2.62506
 Alpha virt. eigenvalues --    2.66504   2.69752   2.75657   2.81913   2.93420
 Alpha virt. eigenvalues --    3.02835   3.06422   3.10501   3.17824   3.25024
 Alpha virt. eigenvalues --    3.38421   3.56149   3.76942   4.09522   4.15869
 Alpha virt. eigenvalues --    4.18707   4.40521   4.43762   4.73766
          Condensed to atoms (all electrons):
               1          2          3          4          5          6
     1  C    4.866713   0.524368  -0.041247  -0.041440  -0.027716   0.489530
     2  C    0.524368   4.831609   0.547949  -0.035322  -0.034681  -0.027068
     3  C   -0.041247   0.547949   4.818102   0.528283  -0.037497  -0.035492
     4  C   -0.041440  -0.035322   0.528283   4.832469   0.542736  -0.032334
     5  C   -0.027716  -0.034681  -0.037497   0.542736   4.831381   0.496356
     6  C    0.489530  -0.027068  -0.035492  -0.032334   0.496356   4.967748
     7  H    0.380364  -0.041824   0.004717   0.000456   0.003314  -0.038861
     8  H   -0.032496   0.002622   0.000458   0.002924  -0.029708   0.348611
     9  H    0.004268   0.000194   0.003998  -0.034077   0.369567  -0.051997
    10  H    0.000238   0.005377  -0.040090   0.353638  -0.039125   0.003929
    11  H    0.004577  -0.036872   0.361195  -0.040285   0.005109   0.000136
    12  H   -0.030917   0.345115  -0.040012   0.004971   0.000267   0.002774
               7          8          9         10         11         12
     1  C    0.380364  -0.032496   0.004268   0.000238   0.004577  -0.030917
     2  C   -0.041824   0.002622   0.000194   0.005377  -0.036872   0.345115
     3  C    0.004717   0.000458   0.003998  -0.040090   0.361195  -0.040012
     4  C    0.000456   0.002924  -0.034077   0.353638  -0.040285   0.004971
     5  C    0.003314  -0.029708   0.369567  -0.039125   0.005109   0.000267
     6  C   -0.038861   0.348611  -0.051997   0.003929   0.000136   0.002774
     7  H    0.599193  -0.002345  -0.000166   0.000013  -0.000172  -0.003761
     8  H   -0.002345   0.625211  -0.004263  -0.000088   0.000004  -0.000064
     9  H   -0.000166  -0.004263   0.615482  -0.004297  -0.000111   0.000010
    10  H    0.000013  -0.000088  -0.004297   0.647738  -0.008426  -0.000225
    11  H   -0.000172   0.000004  -0.000111  -0.008426   0.637597  -0.007676
    12  H   -0.003761  -0.000064   0.000010  -0.000225  -0.007676   0.651927
 Mulliken charges:
               1
     1  C   -0.096242
     2  C   -0.081466
     3  C   -0.070366
     4  C   -0.082018
     5  C   -0.080003
     6  C   -0.123334
     7  H    0.099072
     8  H    0.089134
     9  H    0.101392
    10  H    0.081318
    11  H    0.084923
    12  H    0.077590
 Sum of Mulliken charges =  -0.00000
 Mulliken charges with hydrogens summed into heavy atoms:
               1
     1  C    0.002830
     2  C   -0.003876
     3  C    0.014557
     4  C   -0.000700
     5  C    0.021389
     6  C   -0.034200
 Electronic spatial extent (au):  <R**2>=            479.4591
 Charge=             -0.0000 electrons
 Dipole moment (field-independent basis, Debye):
    X=              0.0319    Y=              0.0233    Z=              0.1915  Tot=              0.1956
 Quadrupole moment (field-independent basis, Debye-Ang):
   XX=            -31.5109   YY=            -32.2655   ZZ=            -39.1249
   XY=             -0.8265   XZ=             -0.5073   YZ=             -0.4239
 Traceless Quadrupole moment (field-independent basis, Debye-Ang):
   XX=              2.7895   YY=              2.0350   ZZ=             -4.8245
   XY=             -0.8265   XZ=             -0.5073   YZ=             -0.4239
 Octapole moment (field-independent basis, Debye-Ang**2):
  XXX=              1.2423  YYY=              0.0650  ZZZ=              0.4095  XYY=             -0.6660
  XXY=             -0.4400  XXZ=             -0.5618  XZZ=             -0.1191  YZZ=             -0.1379
  YYZ=              2.0858  XYZ=              0.6343
 Hexadecapole moment (field-independent basis, Debye-Ang**3):
 XXXX=           -288.4413 YYYY=           -282.8487 ZZZZ=            -42.4593 XXXY=             -3.1773
 XXXZ=             -2.7419 YYYX=             -4.8913 YYYZ=             -2.9607 ZZZX=             -0.3925
 ZZZY=             -0.8684 XXYY=            -97.8493 XXZZ=            -66.3021 YYZZ=            -62.6162
 XXYZ=             -0.2384 YYXZ=             -1.4168 ZZXY=              0.4064
 N-N= 1.980482989326D+02 E-N=-9.326483015945D+02  KE= 2.291403703250D+02
 1\1\GINC-DESKTOP-PRN5QE3\SP\RB3LYP TD-FC\6-31G(d,p)\C6H6\SHOHEI\10-Nov
 -2023\0\\# TD=(NStates=1) B3LYP/6-31G(d,p)\\EMISPCT\\0,1\C,0,0.4015583
 106,1.4132865632,0.0016787447\C,0,1.3690935025,0.3771639959,0.03304701
 23\C,0,1.0048097647,-0.9515323527,-0.0657839809\C,0,-0.3602000625,-1.3
 433763726,0.0047076466\C,0,-1.3794562529,-0.4506733873,0.087470018\C,0
 ,-1.0577015432,0.9792429548,-0.0825980449\H,0,0.6724753728,2.310127755
 9,0.3490757286\H,0,-1.8969149201,1.8622660819,-0.1575014777\H,0,-2.471
 189891,-0.5430068573,-0.064830981\H,0,-0.4726764607,-2.5186507488,0.12
 44328927\H,0,1.7719780487,-1.8291893614,-0.0440672998\H,0,2.5997669237
 ,0.4748499455,0.0864213936\\Version=EM64L-G16RevB.01\State=1-A\HF=-232
 .182125\RMSD=9.358e-09\PG=C01 [X(C6H6)]\\@


 The lyf so short, the craft so long to lerne.
                             -- Chaucer
 Job cpu time:       0 days  0 hours  3 minutes 11.0 seconds.
 Elapsed time:       0 days  0 hours  0 minutes 48.3 seconds.
 File lengths (MBytes):  RWF=    116 Int=      0 D2E=      0 Chk=      3 Scr=      1
 Normal termination of Gaussian 16 at Fri Nov 10 19:51:13 2023.
