 Entering Gaussian System, Link 0=g16
 Input=Geometry-493-.com
 Output=Geometry-493-.log
 Initial command:
 /home/shohei/gaussian/g16/l1.exe "/home/shohei/gaussian/scratch/Gau-980.inp" -scrdir="/home/shohei/gaussian/scratch/"
 Entering Link 1 = /home/shohei/gaussian/g16/l1.exe PID=       982.
  
 Copyright (c) 1988-2017, Gaussian, Inc.  All Rights Reserved.
  
 This is part of the Gaussian(R) 16 program.  It is based on
 the Gaussian(R) 09 system (copyright 2009, Gaussian, Inc.),
 the Gaussian(R) 03 system (copyright 2003, Gaussian, Inc.),
 the Gaussian(R) 98 system (copyright 1998, Gaussian, Inc.),
 the Gaussian(R) 94 system (copyright 1995, Gaussian, Inc.),
 the Gaussian 92(TM) system (copyright 1992, Gaussian, Inc.),
 the Gaussian 90(TM) system (copyright 1990, Gaussian, Inc.),
 the Gaussian 88(TM) system (copyright 1988, Gaussian, Inc.),
 the Gaussian 86(TM) system (copyright 1986, Carnegie Mellon
 University), and the Gaussian 82(TM) system (copyright 1983,
 Carnegie Mellon University). Gaussian is a federally registered
 trademark of Gaussian, Inc.
  
 This software contains proprietary and confidential information,
 including trade secrets, belonging to Gaussian, Inc.
  
 This software is provided under written license and may be
 used, copied, transmitted, or stored only in accord with that
 written license.
  
 The following legend is applicable only to US Government
 contracts under FAR:
  
                    RESTRICTED RIGHTS LEGEND
  
 Use, reproduction and disclosure by the US Government is
 subject to restrictions as set forth in subparagraphs (a)
 and (c) of the Commercial Computer Software - Restricted
 Rights clause in FAR 52.227-19.
  
 Gaussian, Inc.
 340 Quinnipiac St., Bldg. 40, Wallingford CT 06492
  
  
 ---------------------------------------------------------------
 Warning -- This program may not be used in any manner that
 competes with the business of Gaussian, Inc. or will provide
 assistance to any competitor of Gaussian, Inc.  The licensee
 of this program is prohibited from giving any competitor of
 Gaussian, Inc. access to this program.  By using this program,
 the user acknowledges that Gaussian, Inc. is engaged in the
 business of creating and licensing software in the field of
 computational chemistry and represents and warrants to the
 licensee that it is not a competitor of Gaussian, Inc. and that
 it will not use this program in any manner prohibited above.
 ---------------------------------------------------------------
  

 Cite this work as:
 Gaussian 16, Revision B.01,
 M. J. Frisch, G. W. Trucks, H. B. Schlegel, G. E. Scuseria, 
 M. A. Robb, J. R. Cheeseman, G. Scalmani, V. Barone, 
 G. A. Petersson, H. Nakatsuji, X. Li, M. Caricato, A. V. Marenich, 
 J. Bloino, B. G. Janesko, R. Gomperts, B. Mennucci, H. P. Hratchian, 
 J. V. Ortiz, A. F. Izmaylov, J. L. Sonnenberg, D. Williams-Young, 
 F. Ding, F. Lipparini, F. Egidi, J. Goings, B. Peng, A. Petrone, 
 T. Henderson, D. Ranasinghe, V. G. Zakrzewski, J. Gao, N. Rega, 
 G. Zheng, W. Liang, M. Hada, M. Ehara, K. Toyota, R. Fukuda, 
 J. Hasegawa, M. Ishida, T. Nakajima, Y. Honda, O. Kitao, H. Nakai, 
 T. Vreven, K. Throssell, J. A. Montgomery, Jr., J. E. Peralta, 
 F. Ogliaro, M. J. Bearpark, J. J. Heyd, E. N. Brothers, K. N. Kudin, 
 V. N. Staroverov, T. A. Keith, R. Kobayashi, J. Normand, 
 K. Raghavachari, A. P. Rendell, J. C. Burant, S. S. Iyengar, 
 J. Tomasi, M. Cossi, J. M. Millam, M. Klene, C. Adamo, R. Cammi, 
 J. W. Ochterski, R. L. Martin, K. Morokuma, O. Farkas, 
 J. B. Foresman, and D. J. Fox, Gaussian, Inc., Wallingford CT, 2016.
 
 ******************************************
 Gaussian 16:  EM64L-G16RevB.01 20-Dec-2017
                10-Nov-2023 
 ******************************************
 %nproc=4
 Will use up to    4 processors via shared memory.
 %Mem=2Gb
 ---------------------------------
 # TD=(NStates=1) B3LYP/6-31G(d,p)
 ---------------------------------
 1/38=1,172=1/1;
 2/12=2,17=6,18=5,40=1/2;
 3/5=1,6=6,7=101,11=9,25=1,30=1,74=-5/1,2,3,8;
 4//1;
 5/5=2,38=5/2;
 8/6=1,10=2,108=1/1;
 9/41=1,42=1,70=2/14;
 6/7=2,8=2,9=2,10=2/1;
 99/5=1,9=1/99;
 -------
 EMISPCT
 -------
 Symbolic Z-matrix:
 Charge =  0 Multiplicity = 1
 6                     0.35884   1.332     0.05413 
 6                     1.35104   0.3212   -0.11526 
 6                     1.05376  -0.95986   0.07899 
 6                    -0.30446  -1.32339  -0.03209 
 6                    -1.39724  -0.36694  -0.01186 
 6                    -1.06468   0.99286   0.03707 
 1                     0.67362   2.25676   0.23855 
 1                    -1.82577   1.83054  -0.20026 
 1                    -2.37892  -0.60901  -0.25362 
 1                    -0.63358  -2.39481   0.09659 
 1                     1.82791  -1.69924   0.24999 
 1                     2.35128   0.67903  -0.28131 
 
                          Input orientation:                          
 ---------------------------------------------------------------------
 Center     Atomic      Atomic             Coordinates (Angstroms)
 Number     Number       Type             X           Y           Z
 ---------------------------------------------------------------------
      1          6           0        0.358837    1.331999    0.054135
      2          6           0        1.351037    0.321203   -0.115264
      3          6           0        1.053763   -0.959857    0.078990
      4          6           0       -0.304461   -1.323387   -0.032090
      5          6           0       -1.397235   -0.366942   -0.011859
      6          6           0       -1.064676    0.992862    0.037067
      7          1           0        0.673623    2.256755    0.238546
      8          1           0       -1.825772    1.830542   -0.200255
      9          1           0       -2.378924   -0.609012   -0.253621
     10          1           0       -0.633584   -2.394806    0.096590
     11          1           0        1.827907   -1.699239    0.249989
     12          1           0        2.351281    0.679032   -0.281308
 ---------------------------------------------------------------------
                    Distance matrix (angstroms):
                    1          2          3          4          5
     1  C    0.000000
     2  C    1.426487   0.000000
     3  C    2.395024   1.329369   0.000000
     4  C    2.738334   2.335009   1.410413   0.000000
     5  C    2.444288   2.835002   2.523330   1.452361   0.000000
     6  C    1.463453   2.511972   2.881432   2.438795   1.400734
     7  H    0.994119   2.080970   3.242924   3.721198   3.351857
     8  H    2.255167   3.518159   4.019456   3.505701   2.246792
     9  H    3.370100   3.846693   3.466563   2.205176   1.039596
    10  H    3.856912   3.370505   2.215068   1.128192   2.169598
    11  H    3.374155   2.107843   1.084078   2.183535   3.499303
    12  H    2.123375   1.075221   2.121161   3.335380   3.901031
                    6          7          8          9         10
     6  C    0.000000
     7  H    2.158634   0.000000
     8  H    1.156416   2.573165   0.000000
     9  H    2.092307   4.215791   2.502049   0.000000
    10  H    3.415505   4.833835   4.400340   2.521491   0.000000
    11  H    3.957244   4.120970   5.100141   4.374887   2.562476
    12  H    3.445086   2.360931   4.333626   4.902516   4.301245
                   11         12
    11  H    0.000000
    12  H    2.492463   0.000000
 Stoichiometry    C6H6
 Framework group  C1[X(C6H6)]
 Deg. of freedom    30
 Full point group                 C1      NOp   1
 Largest Abelian subgroup         C1      NOp   1
 Largest concise Abelian subgroup C1      NOp   1
                         Standard orientation:                         
 ---------------------------------------------------------------------
 Center     Atomic      Atomic             Coordinates (Angstroms)
 Number     Number       Type             X           Y           Z
 ---------------------------------------------------------------------
      1          6           0       -0.122638   -1.373001   -0.059616
      2          6           0        1.156073   -0.767623    0.122815
      3          6           0        1.321587    0.537572   -0.067686
      4          6           0        0.171650    1.347865    0.033979
      5          6           0       -1.184056    0.827991    0.000145
      6          6           0       -1.341387   -0.562879   -0.052614
      7          1           0       -0.145054   -2.349253   -0.245898
      8          1           0       -2.347239   -1.086354    0.174394
      9          1           0       -2.023862    1.393970    0.234994
     10          1           0        0.234226    2.467228   -0.092226
     11          1           0        2.305096    0.964183   -0.228741
     12          1           0        1.969465   -1.449332    0.295346
 ---------------------------------------------------------------------
 Rotational constants (GHZ):           5.9106149           5.2869470           2.8097803
 Standard basis: 6-31G(d,p) (6D, 7F)
 There are   120 symmetry adapted cartesian basis functions of A   symmetry.
 There are   120 symmetry adapted basis functions of A   symmetry.
   120 basis functions,   210 primitive gaussians,   120 cartesian basis functions
    21 alpha electrons       21 beta electrons
       nuclear repulsion energy       201.8056922860 Hartrees.
 NAtoms=   12 NActive=   12 NUniq=   12 SFac= 1.00D+00 NAtFMM=   60 NAOKFM=F Big=F
 Integral buffers will be    131072 words long.
 Regular integral format.
 Two-electron integral symmetry is turned on.
 One-electron integrals computed using PRISM.
 NBasis=   120 RedAO= T EigKep=  9.61D-04  NBF=   120
 NBsUse=   120 1.00D-06 EigRej= -1.00D+00 NBFU=   120
 ExpMin= 1.61D-01 ExpMax= 3.05D+03 ExpMxC= 4.57D+02 IAcc=3 IRadAn=         5 AccDes= 0.00D+00
 Harris functional with IExCor=  402 and IRadAn=       5 diagonalized for initial guess.
 HarFok:  IExCor=  402 AccDes= 0.00D+00 IRadAn=         5 IDoV= 1 UseB2=F ITyADJ=14
 ICtDFT=  3500011 ScaDFX=  1.000000  1.000000  1.000000  1.000000
 FoFCou: FMM=F IPFlag=           0 FMFlag=      100000 FMFlg1=           0
         NFxFlg=           0 DoJE=T BraDBF=F KetDBF=T FulRan=T
         wScrn=  0.000000 ICntrl=       500 IOpCl=  0 I1Cent=   200000004 NGrid=           0
         NMat0=    1 NMatS0=      1 NMatT0=    0 NMatD0=    1 NMtDS0=    0 NMtDT0=    0
 Petite list used in FoFCou.
 Keep R1 ints in memory in canonical form, NReq=30147728.
 Requested convergence on RMS density matrix=1.00D-08 within 128 cycles.
 Requested convergence on MAX density matrix=1.00D-06.
 Requested convergence on             energy=1.00D-06.
 No special actions if energy rises.
 Integral accuracy reduced to 1.0D-05 until final iterations.
 Initial convergence to 1.0D-05 achieved.  Increase integral accuracy.
 SCF Done:  E(RB3LYP) =  -232.214476715     A.U. after   13 cycles
            NFock= 13  Conv=0.31D-08     -V/T= 2.0103
 DoSCS=F DFT=T ScalE2(SS,OS)=  1.000000  1.000000
 ExpMin= 1.61D-01 ExpMax= 3.05D+03 ExpMxC= 4.57D+02 IAcc=3 IRadAn=         5 AccDes= 0.00D+00
 HarFok:  IExCor=  205 AccDes= 0.00D+00 IRadAn=         5 IDoV=-2 UseB2=F ITyADJ=14
 ICtDFT= 12500011 ScaDFX=  1.000000  1.000000  1.000000  1.000000
 Range of M.O.s used for correlation:     7   120
 NBasis=   120 NAE=    21 NBE=    21 NFC=     6 NFV=     0
 NROrb=    114 NOA=    15 NOB=    15 NVA=    99 NVB=    99
 Keep R1, R2, and R3 ints in memory in canonical form, NReq=84032236.
 Orbital symmetries:
       Occupied  (A) (A) (A) (A) (A) (A) (A) (A) (A) (A) (A) (A)
                 (A) (A) (A) (A) (A) (A) (A) (A) (A)
       Virtual   (A) (A) (A) (A) (A) (A) (A) (A) (A) (A) (A) (A)
                 (A) (A) (A) (A) (A) (A) (A) (A) (A) (A) (A) (A)
                 (A) (A) (A) (A) (A) (A) (A) (A) (A) (A) (A) (A)
                 (A) (A) (A) (A) (A) (A) (A) (A) (A) (A) (A) (A)
                 (A) (A) (A) (A) (A) (A) (A) (A) (A) (A) (A) (A)
                 (A) (A) (A) (A) (A) (A) (A) (A) (A) (A) (A) (A)
                 (A) (A) (A) (A) (A) (A) (A) (A) (A) (A) (A) (A)
                 (A) (A) (A) (A) (A) (A) (A) (A) (A) (A) (A) (A)
                 (A) (A) (A)
     4 initial guesses have been made.
 Convergence on wavefunction:    0.001000000000000
 Iteration     1 Dimension     4 NMult     0 NNew      4
 CISAX will form     4 AO SS matrices at one time.
 New state      1 was old state      2
 Iteration     2 Dimension     6 NMult     4 NNew      2
 Iteration     3 Dimension     8 NMult     6 NNew      2
 Iteration     4 Dimension    10 NMult     8 NNew      2
 Iteration     5 Dimension    12 NMult    10 NNew      2
 ***********************************************************************
 Excited states from <AA,BB:AA,BB> singles matrix:
 ***********************************************************************
 
 Ground to excited state transition densities written to RWF  633
 Ground to excited state transition electric dipole moments (Au):
       state          X           Y           Z        Dip. S.      Osc.
         1         0.0752      0.0328      0.0012      0.0067      0.0008
 Ground to excited state transition velocity dipole moments (Au):
       state          X           Y           Z        Dip. S.      Osc.
         1        -0.0152     -0.0036     -0.0007      0.0002      0.0009
 Ground to excited state transition magnetic dipole moments (Au):
       state          X           Y           Z
         1         0.0447     -0.0122     -0.0271
 Ground to excited state transition velocity quadrupole moments (Au):
       state          XX          YY          ZZ          XY          XZ          YZ
         1         0.0108     -0.0081     -0.0009      0.0177      0.0165      0.0245
 <0|del|b> * <b|rxdel|0> + <0|del|b> * <b|delr+rdel|0>
 Rotatory Strengths (R) in cgs (10**-40 erg-esu-cm/Gauss)
       state          XX          YY          ZZ    R(velocity)    E-M Angle
         1         0.2059     -1.9368     -0.6128     -0.7813      137.49
 1/2[<0|r|b>*<b|rxdel|0> + (<0|rxdel|b>*<b|r|0>)*]
 Rotatory Strengths (R) in cgs (10**-40 erg-esu-cm/Gauss)
       state          XX          YY          ZZ     R(length)
         1        -2.3801      0.2825      0.0233     -0.6914
  1/2[<0|del|b>*<b|r|0> + (<0|r|b>*<b|del|0>)*] (Au)
       state          X           Y           Z        Dip. S.   Osc.(frdel)
         1        -0.0011     -0.0001     -0.0000      0.0013      0.0008

 Excitation energies and oscillator strengths:
 
 Excited State   1:      Singlet-A      5.0879 eV  243.68 nm  f=0.0008  <S**2>=0.000
      20 -> 22         0.48000
      21 -> 23         0.51619
 This state for optimization and/or second-order correction.
 Total Energy, E(TD-HF/TD-DFT) =  -232.027498651    
 Copying the excited state density for this state as the 1-particle RhoCI density.
 SavETr:  write IOETrn=   770 NScale= 10 NData=  16 NLR=1 NState=    1 LETran=      28.

 **********************************************************************

            Population analysis using the SCF Density.

 **********************************************************************

 Orbital symmetries:
       Occupied  (A) (A) (A) (A) (A) (A) (A) (A) (A) (A) (A) (A)
                 (A) (A) (A) (A) (A) (A) (A) (A) (A)
       Virtual   (A) (A) (A) (A) (A) (A) (A) (A) (A) (A) (A) (A)
                 (A) (A) (A) (A) (A) (A) (A) (A) (A) (A) (A) (A)
                 (A) (A) (A) (A) (A) (A) (A) (A) (A) (A) (A) (A)
                 (A) (A) (A) (A) (A) (A) (A) (A) (A) (A) (A) (A)
                 (A) (A) (A) (A) (A) (A) (A) (A) (A) (A) (A) (A)
                 (A) (A) (A) (A) (A) (A) (A) (A) (A) (A) (A) (A)
                 (A) (A) (A) (A) (A) (A) (A) (A) (A) (A) (A) (A)
                 (A) (A) (A) (A) (A) (A) (A) (A) (A) (A) (A) (A)
                 (A) (A) (A)
 The electronic state is 1-A.
 Alpha  occ. eigenvalues --  -10.19987 -10.19712 -10.18877 -10.18752 -10.18610
 Alpha  occ. eigenvalues --  -10.18507  -0.84277  -0.74807  -0.72692  -0.60375
 Alpha  occ. eigenvalues --   -0.58953  -0.51764  -0.46507  -0.43320  -0.42831
 Alpha  occ. eigenvalues --   -0.40386  -0.36431  -0.34070  -0.32969  -0.24960
 Alpha  occ. eigenvalues --   -0.23061
 Alpha virt. eigenvalues --   -0.01368   0.00038   0.09386   0.13395   0.13502
 Alpha virt. eigenvalues --    0.15883   0.17313   0.18326   0.19632   0.27510
 Alpha virt. eigenvalues --    0.29938   0.31303   0.32133   0.46965   0.49822
 Alpha virt. eigenvalues --    0.51760   0.53325   0.56041   0.57378   0.58743
 Alpha virt. eigenvalues --    0.59367   0.60266   0.62096   0.62373   0.64905
 Alpha virt. eigenvalues --    0.66679   0.66922   0.73283   0.78919   0.80858
 Alpha virt. eigenvalues --    0.82845   0.85103   0.87502   0.90627   0.93362
 Alpha virt. eigenvalues --    0.94378   0.95166   1.00558   1.05949   1.06540
 Alpha virt. eigenvalues --    1.11519   1.13841   1.19113   1.27965   1.30560
 Alpha virt. eigenvalues --    1.34432   1.43890   1.44384   1.49882   1.56548
 Alpha virt. eigenvalues --    1.68876   1.73554   1.76514   1.80792   1.88027
 Alpha virt. eigenvalues --    1.91876   1.93655   1.96245   1.97809   2.01499
 Alpha virt. eigenvalues --    2.03943   2.04641   2.08923   2.21860   2.24167
 Alpha virt. eigenvalues --    2.32545   2.33899   2.37136   2.39322   2.41661
 Alpha virt. eigenvalues --    2.44674   2.45580   2.47137   2.48714   2.49934
 Alpha virt. eigenvalues --    2.51521   2.54093   2.60959   2.62931   2.64035
 Alpha virt. eigenvalues --    2.75371   2.77357   2.81617   3.00965   3.03363
 Alpha virt. eigenvalues --    3.06045   3.21099   3.24891   3.31870   3.37074
 Alpha virt. eigenvalues --    3.54285   3.59124   3.90162   4.11735   4.14919
 Alpha virt. eigenvalues --    4.19060   4.43186   4.44961   4.76304
          Condensed to atoms (all electrons):
               1          2          3          4          5          6
     1  C    4.852166   0.533329  -0.032425  -0.050582  -0.035270   0.511325
     2  C    0.533329   4.803541   0.549203  -0.031611  -0.038907  -0.025768
     3  C   -0.032425   0.549203   4.789590   0.533530  -0.031084  -0.036781
     4  C   -0.050582  -0.031611   0.533530   4.875642   0.519482  -0.031725
     5  C   -0.035270  -0.038907  -0.031084   0.519482   4.827938   0.535575
     6  C    0.511325  -0.025768  -0.036781  -0.031725   0.535575   4.864756
     7  H    0.377495  -0.044812   0.005985   0.000879   0.004891  -0.042959
     8  H   -0.035999   0.003341   0.000537   0.003872  -0.036325   0.358653
     9  H    0.004765   0.000349   0.003985  -0.038310   0.375233  -0.045924
    10  H    0.000380   0.005418  -0.040879   0.361026  -0.043893   0.005030
    11  H    0.005816  -0.047619   0.374362  -0.040839   0.004161   0.000158
    12  H   -0.045413   0.369940  -0.046896   0.005780   0.000486   0.005251
               7          8          9         10         11         12
     1  C    0.377495  -0.035999   0.004765   0.000380   0.005816  -0.045413
     2  C   -0.044812   0.003341   0.000349   0.005418  -0.047619   0.369940
     3  C    0.005985   0.000537   0.003985  -0.040879   0.374362  -0.046896
     4  C    0.000879   0.003872  -0.038310   0.361026  -0.040839   0.005780
     5  C    0.004891  -0.036325   0.375233  -0.043893   0.004161   0.000486
     6  C   -0.042959   0.358653  -0.045924   0.005030   0.000158   0.005251
     7  H    0.627372  -0.003602  -0.000246   0.000009  -0.000274  -0.007696
     8  H   -0.003602   0.626082  -0.005187  -0.000154   0.000012  -0.000149
     9  H   -0.000246  -0.005187   0.620515  -0.005273  -0.000116   0.000019
    10  H    0.000009  -0.000154  -0.005273   0.644981  -0.006005  -0.000206
    11  H   -0.000274   0.000012  -0.000116  -0.006005   0.625178  -0.007219
    12  H   -0.007696  -0.000149   0.000019  -0.000206  -0.007219   0.641980
 Mulliken charges:
               1
     1  C   -0.085587
     2  C   -0.076404
     3  C   -0.069127
     4  C   -0.107145
     5  C   -0.082286
     6  C   -0.097591
     7  H    0.082959
     8  H    0.088917
     9  H    0.090189
    10  H    0.079567
    11  H    0.092384
    12  H    0.084122
 Sum of Mulliken charges =  -0.00000
 Mulliken charges with hydrogens summed into heavy atoms:
               1
     1  C   -0.002628
     2  C    0.007718
     3  C    0.023257
     4  C   -0.027578
     5  C    0.007904
     6  C   -0.008674
 Electronic spatial extent (au):  <R**2>=            463.2542
 Charge=             -0.0000 electrons
 Dipole moment (field-independent basis, Debye):
    X=              0.1592    Y=             -0.1758    Z=              0.0858  Tot=              0.2522
 Quadrupole moment (field-independent basis, Debye-Ang):
   XX=            -31.2093   YY=            -32.0535   ZZ=            -38.3993
   XY=             -0.1781   XZ=             -0.7439   YZ=             -0.0825
 Traceless Quadrupole moment (field-independent basis, Debye-Ang):
   XX=              2.6781   YY=              1.8339   ZZ=             -4.5120
   XY=             -0.1781   XZ=             -0.7439   YZ=             -0.0825
 Octapole moment (field-independent basis, Debye-Ang**2):
  XXX=              0.3946  YYY=             -1.4448  ZZZ=              0.1070  XYY=              0.1813
  XXY=             -0.0389  XXZ=              1.5391  XZZ=              0.5352  YZZ=             -0.4149
  YYZ=             -0.7284  XYZ=             -1.1550
 Hexadecapole moment (field-independent basis, Debye-Ang**3):
 XXXX=           -284.9129 YYYY=           -264.2162 ZZZZ=            -42.2228 XXXY=              0.8546
 XXXZ=             -5.3198 YYYX=             -2.2388 YYYZ=              1.0132 ZZZX=             -0.7339
 ZZZY=              0.1053 XXYY=            -91.5727 XXZZ=            -62.8129 YYZZ=            -58.2290
 XXYZ=             -1.9427 YYXZ=             -0.9753 ZZXY=             -0.5086
 N-N= 2.018056922860D+02 E-N=-9.408398916777D+02  KE= 2.298569514791D+02
 1\1\GINC-DESKTOP-PRN5QE3\SP\RB3LYP TD-FC\6-31G(d,p)\C6H6\SHOHEI\10-Nov
 -2023\0\\# TD=(NStates=1) B3LYP/6-31G(d,p)\\EMISPCT\\0,1\C,0,0.3588374
 798,1.3319986043,0.0541348717\C,0,1.3510372413,0.3212030069,-0.1152644
 006\C,0,1.0537630516,-0.9598568625,0.0789903408\C,0,-0.3044607632,-1.3
 233873464,-0.0320900016\C,0,-1.3972351743,-0.3669418604,-0.011859145\C
 ,0,-1.064675921,0.9928619961,0.0370674418\H,0,0.6736229612,2.256755306
 9,0.2385458098\H,0,-1.8257718043,1.8305422638,-0.2002553494\H,0,-2.378
 9235219,-0.6090124056,-0.2536208276\H,0,-0.6335838712,-2.3948057433,0.
 0965902904\H,0,1.8279069241,-1.6992388668,0.2499892328\H,0,2.351281358
 5,0.6790320655,-0.2813076196\\Version=EM64L-G16RevB.01\State=1-A\HF=-2
 32.2144767\RMSD=3.082e-09\PG=C01 [X(C6H6)]\\@


 IF NO USE IS MADE OF THE LABOR OF PAST AGES,
 THE WORLD MUST REMAIN ALWAYS IN THE INFANCY OF KNOWLEDGE.

                          -- CICERO
 Job cpu time:       0 days  0 hours  6 minutes 27.4 seconds.
 Elapsed time:       0 days  0 hours  1 minutes 37.7 seconds.
 File lengths (MBytes):  RWF=    116 Int=      0 D2E=      0 Chk=      3 Scr=      1
 Normal termination of Gaussian 16 at Fri Nov 10 23:01:50 2023.
