 Entering Gaussian System, Link 0=g16
 Input=Geometry-164-.com
 Output=Geometry-164-.log
 Initial command:
 /home/shohei/gaussian/g16/l1.exe "/home/shohei/gaussian/scratch/Gau-26322.inp" -scrdir="/home/shohei/gaussian/scratch/"
 Entering Link 1 = /home/shohei/gaussian/g16/l1.exe PID=     26324.
  
 Copyright (c) 1988-2017, Gaussian, Inc.  All Rights Reserved.
  
 This is part of the Gaussian(R) 16 program.  It is based on
 the Gaussian(R) 09 system (copyright 2009, Gaussian, Inc.),
 the Gaussian(R) 03 system (copyright 2003, Gaussian, Inc.),
 the Gaussian(R) 98 system (copyright 1998, Gaussian, Inc.),
 the Gaussian(R) 94 system (copyright 1995, Gaussian, Inc.),
 the Gaussian 92(TM) system (copyright 1992, Gaussian, Inc.),
 the Gaussian 90(TM) system (copyright 1990, Gaussian, Inc.),
 the Gaussian 88(TM) system (copyright 1988, Gaussian, Inc.),
 the Gaussian 86(TM) system (copyright 1986, Carnegie Mellon
 University), and the Gaussian 82(TM) system (copyright 1983,
 Carnegie Mellon University). Gaussian is a federally registered
 trademark of Gaussian, Inc.
  
 This software contains proprietary and confidential information,
 including trade secrets, belonging to Gaussian, Inc.
  
 This software is provided under written license and may be
 used, copied, transmitted, or stored only in accord with that
 written license.
  
 The following legend is applicable only to US Government
 contracts under FAR:
  
                    RESTRICTED RIGHTS LEGEND
  
 Use, reproduction and disclosure by the US Government is
 subject to restrictions as set forth in subparagraphs (a)
 and (c) of the Commercial Computer Software - Restricted
 Rights clause in FAR 52.227-19.
  
 Gaussian, Inc.
 340 Quinnipiac St., Bldg. 40, Wallingford CT 06492
  
  
 ---------------------------------------------------------------
 Warning -- This program may not be used in any manner that
 competes with the business of Gaussian, Inc. or will provide
 assistance to any competitor of Gaussian, Inc.  The licensee
 of this program is prohibited from giving any competitor of
 Gaussian, Inc. access to this program.  By using this program,
 the user acknowledges that Gaussian, Inc. is engaged in the
 business of creating and licensing software in the field of
 computational chemistry and represents and warrants to the
 licensee that it is not a competitor of Gaussian, Inc. and that
 it will not use this program in any manner prohibited above.
 ---------------------------------------------------------------
  

 Cite this work as:
 Gaussian 16, Revision B.01,
 M. J. Frisch, G. W. Trucks, H. B. Schlegel, G. E. Scuseria, 
 M. A. Robb, J. R. Cheeseman, G. Scalmani, V. Barone, 
 G. A. Petersson, H. Nakatsuji, X. Li, M. Caricato, A. V. Marenich, 
 J. Bloino, B. G. Janesko, R. Gomperts, B. Mennucci, H. P. Hratchian, 
 J. V. Ortiz, A. F. Izmaylov, J. L. Sonnenberg, D. Williams-Young, 
 F. Ding, F. Lipparini, F. Egidi, J. Goings, B. Peng, A. Petrone, 
 T. Henderson, D. Ranasinghe, V. G. Zakrzewski, J. Gao, N. Rega, 
 G. Zheng, W. Liang, M. Hada, M. Ehara, K. Toyota, R. Fukuda, 
 J. Hasegawa, M. Ishida, T. Nakajima, Y. Honda, O. Kitao, H. Nakai, 
 T. Vreven, K. Throssell, J. A. Montgomery, Jr., J. E. Peralta, 
 F. Ogliaro, M. J. Bearpark, J. J. Heyd, E. N. Brothers, K. N. Kudin, 
 V. N. Staroverov, T. A. Keith, R. Kobayashi, J. Normand, 
 K. Raghavachari, A. P. Rendell, J. C. Burant, S. S. Iyengar, 
 J. Tomasi, M. Cossi, J. M. Millam, M. Klene, C. Adamo, R. Cammi, 
 J. W. Ochterski, R. L. Martin, K. Morokuma, O. Farkas, 
 J. B. Foresman, and D. J. Fox, Gaussian, Inc., Wallingford CT, 2016.
 
 ******************************************
 Gaussian 16:  EM64L-G16RevB.01 20-Dec-2017
                10-Nov-2023 
 ******************************************
 %nproc=4
 Will use up to    4 processors via shared memory.
 %Mem=2Gb
 ---------------------------------
 # TD=(NStates=1) B3LYP/6-31G(d,p)
 ---------------------------------
 1/38=1,172=1/1;
 2/12=2,17=6,18=5,40=1/2;
 3/5=1,6=6,7=101,11=9,25=1,30=1,74=-5/1,2,3,8;
 4//1;
 5/5=2,38=5/2;
 8/6=1,10=2,108=1/1;
 9/41=1,42=1,70=2/14;
 6/7=2,8=2,9=2,10=2/1;
 99/5=1,9=1/99;
 -------
 EMISPCT
 -------
 Symbolic Z-matrix:
 Charge =  0 Multiplicity = 1
 6                     0.40999   1.29698  -0.04479 
 6                     1.36406   0.40132  -0.0233 
 6                     1.00333  -0.90094   0.05809 
 6                    -0.35138  -1.31863  -0.02095 
 6                    -1.41584  -0.38334  -0.02648 
 6                    -1.02045   0.94531  -0.00023 
 1                     0.55718   2.28724   0.28951 
 1                    -1.66524   1.7671    0.32687 
 1                    -2.3899   -0.82656   0.17038 
 1                    -0.40789  -2.40856  -0.07818 
 1                     1.5608   -1.88391   0.14443 
 1                     2.47864   0.63034  -0.06489 
 
                          Input orientation:                          
 ---------------------------------------------------------------------
 Center     Atomic      Atomic             Coordinates (Angstroms)
 Number     Number       Type             X           Y           Z
 ---------------------------------------------------------------------
      1          6           0        0.409990    1.296979   -0.044793
      2          6           0        1.364055    0.401315   -0.023301
      3          6           0        1.003333   -0.900944    0.058091
      4          6           0       -0.351382   -1.318625   -0.020948
      5          6           0       -1.415843   -0.383338   -0.026485
      6          6           0       -1.020452    0.945305   -0.000231
      7          1           0        0.557183    2.287244    0.289506
      8          1           0       -1.665236    1.767101    0.326873
      9          1           0       -2.389899   -0.826556    0.170381
     10          1           0       -0.407887   -2.408556   -0.078181
     11          1           0        1.560796   -1.883908    0.144430
     12          1           0        2.478636    0.630343   -0.064895
 ---------------------------------------------------------------------
                    Distance matrix (angstroms):
                    1          2          3          4          5
     1  C    0.000000
     2  C    1.308784   0.000000
     3  C    2.278927   1.353745   0.000000
     4  C    2.724269   2.429182   1.419844   0.000000
     5  C    2.481424   2.888516   2.475374   1.416992   0.000000
     6  C    1.473712   2.445881   2.740026   2.360819   1.386476
     7  H    1.055485   2.074999   3.227561   3.731510   3.335370
     8  H    2.160027   3.341347   3.783116   3.371779   2.193501
     9  H    3.520665   3.954409   3.395904   2.105775   1.088111
    10  H    3.794869   3.322374   2.069543   1.092895   2.262776
    11  H    3.387950   2.299802   1.133331   2.000830   3.337859
    12  H    2.173500   1.138629   2.129903   3.436483   4.024424
                    6          7          8          9         10
     6  C    0.000000
     7  H    2.091335   0.000000
     8  H    1.094574   2.282782   0.000000
     9  H    2.245882   4.288967   2.697533   0.000000
    10  H    3.410235   4.808025   4.379624   2.548113   0.000000
    11  H    3.832521   4.292645   4.875494   4.089824   2.049519
    12  H    3.513830   2.561817   4.314786   5.087293   4.191313
                   11         12
    11  H    0.000000
    12  H    2.684717   0.000000
 Stoichiometry    C6H6
 Framework group  C1[X(C6H6)]
 Deg. of freedom    30
 Full point group                 C1      NOp   1
 Largest Abelian subgroup         C1      NOp   1
 Largest concise Abelian subgroup C1      NOp   1
                         Standard orientation:                         
 ---------------------------------------------------------------------
 Center     Atomic      Atomic             Coordinates (Angstroms)
 Number     Number       Type             X           Y           Z
 ---------------------------------------------------------------------
      1          6           0       -0.786610   -1.113868   -0.064934
      2          6           0       -1.421318    0.030117   -0.028058
      3          6           0       -0.679662    1.158933    0.063290
      4          6           0        0.737575    1.143697   -0.021341
      5          6           0        1.465354   -0.071917   -0.043427
      6          6           0        0.683039   -1.216485   -0.027145
      7          1           0       -1.228037   -2.015559    0.260864
      8          1           0        1.047157   -2.199610    0.287456
      9          1           0        2.528994    0.050315    0.150773
     10          1           0        1.124161    2.164847   -0.068491
     11          1           0       -0.909816    2.264157    0.163033
     12          1           0       -2.552729    0.152989   -0.063940
 ---------------------------------------------------------------------
 Rotational constants (GHZ):           6.0338848           5.4226971           2.8669279
 Standard basis: 6-31G(d,p) (6D, 7F)
 There are   120 symmetry adapted cartesian basis functions of A   symmetry.
 There are   120 symmetry adapted basis functions of A   symmetry.
   120 basis functions,   210 primitive gaussians,   120 cartesian basis functions
    21 alpha electrons       21 beta electrons
       nuclear repulsion energy       203.7759116038 Hartrees.
 NAtoms=   12 NActive=   12 NUniq=   12 SFac= 1.00D+00 NAtFMM=   60 NAOKFM=F Big=F
 Integral buffers will be    131072 words long.
 Regular integral format.
 Two-electron integral symmetry is turned on.
 One-electron integrals computed using PRISM.
 NBasis=   120 RedAO= T EigKep=  6.56D-04  NBF=   120
 NBsUse=   120 1.00D-06 EigRej= -1.00D+00 NBFU=   120
 ExpMin= 1.61D-01 ExpMax= 3.05D+03 ExpMxC= 4.57D+02 IAcc=3 IRadAn=         5 AccDes= 0.00D+00
 Harris functional with IExCor=  402 and IRadAn=       5 diagonalized for initial guess.
 HarFok:  IExCor=  402 AccDes= 0.00D+00 IRadAn=         5 IDoV= 1 UseB2=F ITyADJ=14
 ICtDFT=  3500011 ScaDFX=  1.000000  1.000000  1.000000  1.000000
 FoFCou: FMM=F IPFlag=           0 FMFlag=      100000 FMFlg1=           0
         NFxFlg=           0 DoJE=T BraDBF=F KetDBF=T FulRan=T
         wScrn=  0.000000 ICntrl=       500 IOpCl=  0 I1Cent=   200000004 NGrid=           0
         NMat0=    1 NMatS0=      1 NMatT0=    0 NMatD0=    1 NMtDS0=    0 NMtDT0=    0
 Petite list used in FoFCou.
 Keep R1 ints in memory in canonical form, NReq=30147728.
 Requested convergence on RMS density matrix=1.00D-08 within 128 cycles.
 Requested convergence on MAX density matrix=1.00D-06.
 Requested convergence on             energy=1.00D-06.
 No special actions if energy rises.
 Integral accuracy reduced to 1.0D-05 until final iterations.
 Initial convergence to 1.0D-05 achieved.  Increase integral accuracy.
 SCF Done:  E(RB3LYP) =  -232.210671889     A.U. after   13 cycles
            NFock= 13  Conv=0.22D-08     -V/T= 2.0097
 DoSCS=F DFT=T ScalE2(SS,OS)=  1.000000  1.000000
 ExpMin= 1.61D-01 ExpMax= 3.05D+03 ExpMxC= 4.57D+02 IAcc=3 IRadAn=         5 AccDes= 0.00D+00
 HarFok:  IExCor=  205 AccDes= 0.00D+00 IRadAn=         5 IDoV=-2 UseB2=F ITyADJ=14
 ICtDFT= 12500011 ScaDFX=  1.000000  1.000000  1.000000  1.000000
 Range of M.O.s used for correlation:     7   120
 NBasis=   120 NAE=    21 NBE=    21 NFC=     6 NFV=     0
 NROrb=    114 NOA=    15 NOB=    15 NVA=    99 NVB=    99

 **** Warning!!: The largest alpha MO coefficient is  0.10176333D+02

 Keep R1, R2, and R3 ints in memory in canonical form, NReq=84032236.
 Orbital symmetries:
       Occupied  (A) (A) (A) (A) (A) (A) (A) (A) (A) (A) (A) (A)
                 (A) (A) (A) (A) (A) (A) (A) (A) (A)
       Virtual   (A) (A) (A) (A) (A) (A) (A) (A) (A) (A) (A) (A)
                 (A) (A) (A) (A) (A) (A) (A) (A) (A) (A) (A) (A)
                 (A) (A) (A) (A) (A) (A) (A) (A) (A) (A) (A) (A)
                 (A) (A) (A) (A) (A) (A) (A) (A) (A) (A) (A) (A)
                 (A) (A) (A) (A) (A) (A) (A) (A) (A) (A) (A) (A)
                 (A) (A) (A) (A) (A) (A) (A) (A) (A) (A) (A) (A)
                 (A) (A) (A) (A) (A) (A) (A) (A) (A) (A) (A) (A)
                 (A) (A) (A) (A) (A) (A) (A) (A) (A) (A) (A) (A)
                 (A) (A) (A)
     4 initial guesses have been made.
 Convergence on wavefunction:    0.001000000000000
 Iteration     1 Dimension     4 NMult     0 NNew      4
 CISAX will form     4 AO SS matrices at one time.
 New state      1 was old state      2
 Iteration     2 Dimension     6 NMult     4 NNew      2
 Iteration     3 Dimension     8 NMult     6 NNew      2
 Iteration     4 Dimension    10 NMult     8 NNew      2
 Iteration     5 Dimension    12 NMult    10 NNew      2
 ***********************************************************************
 Excited states from <AA,BB:AA,BB> singles matrix:
 ***********************************************************************
 
 Ground to excited state transition densities written to RWF  633
 Ground to excited state transition electric dipole moments (Au):
       state          X           Y           Z        Dip. S.      Osc.
         1        -0.0279      0.1417      0.0115      0.0210      0.0028
 Ground to excited state transition velocity dipole moments (Au):
       state          X           Y           Z        Dip. S.      Osc.
         1         0.0050     -0.0310     -0.0026      0.0010      0.0034
 Ground to excited state transition magnetic dipole moments (Au):
       state          X           Y           Z
         1        -0.0203      0.0156     -0.0629
 Ground to excited state transition velocity quadrupole moments (Au):
       state          XX          YY          ZZ          XY          XZ          YZ
         1         0.0092     -0.0145      0.0063     -0.0053     -0.0112     -0.0128
 <0|del|b> * <b|rxdel|0> + <0|del|b> * <b|delr+rdel|0>
 Rotatory Strengths (R) in cgs (10**-40 erg-esu-cm/Gauss)
       state          XX          YY          ZZ    R(velocity)    E-M Angle
         1        -1.1655     -0.0249     -0.3153     -0.5019      101.33
 1/2[<0|r|b>*<b|rxdel|0> + (<0|rxdel|b>*<b|r|0>)*]
 Rotatory Strengths (R) in cgs (10**-40 erg-esu-cm/Gauss)
       state          XX          YY          ZZ     R(length)
         1        -0.4006     -1.5665      0.5096     -0.4858
  1/2[<0|del|b>*<b|r|0> + (<0|r|b>*<b|del|0>)*] (Au)
       state          X           Y           Z        Dip. S.   Osc.(frdel)
         1        -0.0001     -0.0044     -0.0000      0.0046      0.0030

 Excitation energies and oscillator strengths:
 
 Excited State   1:      Singlet-A      5.3706 eV  230.86 nm  f=0.0028  <S**2>=0.000
      20 -> 22        -0.45181
      21 -> 23         0.53964
 This state for optimization and/or second-order correction.
 Total Energy, E(TD-HF/TD-DFT) =  -232.013304676    
 Copying the excited state density for this state as the 1-particle RhoCI density.
 SavETr:  write IOETrn=   770 NScale= 10 NData=  16 NLR=1 NState=    1 LETran=      28.

 **********************************************************************

            Population analysis using the SCF Density.

 **********************************************************************

 Orbital symmetries:
       Occupied  (A) (A) (A) (A) (A) (A) (A) (A) (A) (A) (A) (A)
                 (A) (A) (A) (A) (A) (A) (A) (A) (A)
       Virtual   (A) (A) (A) (A) (A) (A) (A) (A) (A) (A) (A) (A)
                 (A) (A) (A) (A) (A) (A) (A) (A) (A) (A) (A) (A)
                 (A) (A) (A) (A) (A) (A) (A) (A) (A) (A) (A) (A)
                 (A) (A) (A) (A) (A) (A) (A) (A) (A) (A) (A) (A)
                 (A) (A) (A) (A) (A) (A) (A) (A) (A) (A) (A) (A)
                 (A) (A) (A) (A) (A) (A) (A) (A) (A) (A) (A) (A)
                 (A) (A) (A) (A) (A) (A) (A) (A) (A) (A) (A) (A)
                 (A) (A) (A) (A) (A) (A) (A) (A) (A) (A) (A) (A)
                 (A) (A) (A)
 The electronic state is 1-A.
 Alpha  occ. eigenvalues --  -10.19559 -10.19363 -10.18793 -10.18749 -10.18675
 Alpha  occ. eigenvalues --  -10.18271  -0.85310  -0.75362  -0.73261  -0.60234
 Alpha  occ. eigenvalues --   -0.59535  -0.51559  -0.45288  -0.44832  -0.42857
 Alpha  occ. eigenvalues --   -0.39548  -0.35920  -0.34698  -0.32232  -0.25741
 Alpha  occ. eigenvalues --   -0.23578
 Alpha virt. eigenvalues --   -0.00776   0.00308   0.08185   0.13323   0.13643
 Alpha virt. eigenvalues --    0.14949   0.16798   0.19505   0.19981   0.27462
 Alpha virt. eigenvalues --    0.29778   0.31623   0.34070   0.46488   0.51616
 Alpha virt. eigenvalues --    0.53151   0.55538   0.56447   0.57741   0.58910
 Alpha virt. eigenvalues --    0.59385   0.61166   0.62330   0.65187   0.66011
 Alpha virt. eigenvalues --    0.66722   0.66970   0.73092   0.79987   0.81704
 Alpha virt. eigenvalues --    0.82086   0.82894   0.85805   0.90381   0.92433
 Alpha virt. eigenvalues --    0.93459   0.96655   1.02623   1.06743   1.09217
 Alpha virt. eigenvalues --    1.10324   1.14648   1.24908   1.28263   1.32676
 Alpha virt. eigenvalues --    1.35971   1.44258   1.45376   1.50422   1.58120
 Alpha virt. eigenvalues --    1.67573   1.73349   1.77480   1.81099   1.87305
 Alpha virt. eigenvalues --    1.91649   1.94340   1.97455   1.99078   2.03060
 Alpha virt. eigenvalues --    2.05137   2.09164   2.10791   2.22834   2.23196
 Alpha virt. eigenvalues --    2.29209   2.33037   2.36443   2.37416   2.38030
 Alpha virt. eigenvalues --    2.41696   2.45811   2.48717   2.49855   2.51934
 Alpha virt. eigenvalues --    2.53255   2.56516   2.58338   2.62891   2.71618
 Alpha virt. eigenvalues --    2.73514   2.76720   2.82889   2.90365   2.99980
 Alpha virt. eigenvalues --    3.15192   3.20321   3.25572   3.31192   3.34409
 Alpha virt. eigenvalues --    3.50750   3.55076   3.90503   4.13831   4.15857
 Alpha virt. eigenvalues --    4.20957   4.45502   4.47336   4.83588
          Condensed to atoms (all electrons):
               1          2          3          4          5          6
     1  C    4.832959   0.566038  -0.041977  -0.043050  -0.034974   0.513334
     2  C    0.566038   4.772213   0.558613  -0.043796  -0.034781  -0.038572
     3  C   -0.041977   0.558613   4.793454   0.557846  -0.040483  -0.043075
     4  C   -0.043050  -0.043796   0.557846   4.868178   0.526269  -0.041421
     5  C   -0.034974  -0.034781  -0.040483   0.526269   4.804717   0.552786
     6  C    0.513334  -0.038572  -0.043075  -0.041421   0.552786   4.872327
     7  H    0.375248  -0.043694   0.004871   0.000804   0.005067  -0.043772
     8  H   -0.038871   0.004772   0.000790   0.003982  -0.040642   0.367483
     9  H    0.003730   0.000473   0.004940  -0.046523   0.369241  -0.037694
    10  H    0.000723   0.006910  -0.042573   0.362952  -0.039277   0.004320
    11  H    0.005069  -0.037480   0.358694  -0.051157   0.007109   0.000749
    12  H   -0.040942   0.360772  -0.043758   0.005106   0.000333   0.004420
               7          8          9         10         11         12
     1  C    0.375248  -0.038871   0.003730   0.000723   0.005069  -0.040942
     2  C   -0.043694   0.004772   0.000473   0.006910  -0.037480   0.360772
     3  C    0.004871   0.000790   0.004940  -0.042573   0.358694  -0.043758
     4  C    0.000804   0.003982  -0.046523   0.362952  -0.051157   0.005106
     5  C    0.005067  -0.040642   0.369241  -0.039277   0.007109   0.000333
     6  C   -0.043772   0.367483  -0.037694   0.004320   0.000749   0.004420
     7  H    0.627298  -0.007692  -0.000163   0.000012  -0.000210  -0.006314
     8  H   -0.007692   0.625247  -0.003958  -0.000170   0.000015  -0.000170
     9  H   -0.000163  -0.003958   0.621257  -0.004404  -0.000320   0.000019
    10  H    0.000012  -0.000170  -0.004404   0.643859  -0.014783  -0.000247
    11  H   -0.000210   0.000015  -0.000320  -0.014783   0.656884  -0.005007
    12  H   -0.006314  -0.000170   0.000019  -0.000247  -0.005007   0.638529
 Mulliken charges:
               1
     1  C   -0.097287
     2  C   -0.071467
     3  C   -0.067342
     4  C   -0.099189
     5  C   -0.075366
     6  C   -0.110883
     7  H    0.088544
     8  H    0.089215
     9  H    0.093402
    10  H    0.082677
    11  H    0.080437
    12  H    0.087258
 Sum of Mulliken charges =  -0.00000
 Mulliken charges with hydrogens summed into heavy atoms:
               1
     1  C   -0.008743
     2  C    0.015791
     3  C    0.013095
     4  C   -0.016512
     5  C    0.018037
     6  C   -0.021668
 Electronic spatial extent (au):  <R**2>=            456.1539
 Charge=             -0.0000 electrons
 Dipole moment (field-independent basis, Debye):
    X=              0.0420    Y=              0.1456    Z=              0.4483  Tot=              0.4733
 Quadrupole moment (field-independent basis, Debye-Ang):
   XX=            -32.2787   YY=            -31.6676   ZZ=            -38.3047
   XY=              0.3414   XZ=              0.2784   YZ=             -0.8594
 Traceless Quadrupole moment (field-independent basis, Debye-Ang):
   XX=              1.8050   YY=              2.4161   ZZ=             -4.2211
   XY=              0.3414   XZ=              0.2784   YZ=             -0.8594
 Octapole moment (field-independent basis, Debye-Ang**2):
  XXX=              0.2760  YYY=              1.2409  ZZZ=              0.6248  XYY=              0.6317
  XXY=              0.3278  XXZ=              1.2511  XZZ=             -0.1891  YZZ=             -0.3452
  YYZ=              2.5444  XYZ=             -0.1728
 Hexadecapole moment (field-independent basis, Debye-Ang**3):
 XXXX=           -280.4535 YYYY=           -256.9061 ZZZZ=            -41.0766 XXXY=              1.8513
 XXXZ=              3.2303 YYYX=              1.5039 YYYZ=             -4.8068 ZZZX=              0.2599
 ZZZY=             -1.0455 XXYY=            -96.3977 XXZZ=            -61.8455 YYZZ=            -57.9344
 XXYZ=             -1.5476 YYXZ=             -0.6163 ZZXY=              0.2674
 N-N= 2.037759116038D+02 E-N=-9.448644196358D+02  KE= 2.299905313213D+02
 1\1\GINC-DESKTOP-PRN5QE3\SP\RB3LYP TD-FC\6-31G(d,p)\C6H6\SHOHEI\10-Nov
 -2023\0\\# TD=(NStates=1) B3LYP/6-31G(d,p)\\EMISPCT\\0,1\C,0,0.4099903
 092,1.2969789877,-0.0447934529\C,0,1.3640552739,0.4013152986,-0.023301
 4045\C,0,1.0033327089,-0.9009440623,0.058090539\C,0,-0.3513824276,-1.3
 186250705,-0.0209475789\C,0,-1.4158425346,-0.383338312,-0.026484895\C,
 0,-1.020452288,0.9453052921,-0.0002308867\H,0,0.557183022,2.2872444967
 ,0.2895059469\H,0,-1.6652362031,1.7671007974,0.3268734415\H,0,-2.38989
 90233,-0.8265562367,0.1703814749\H,0,-0.4078873384,-2.4085562977,-0.07
 81814773\H,0,1.5607963121,-1.8839081737,0.1444297111\H,0,2.478636454,0
 .6303433011,-0.064894817\\Version=EM64L-G16RevB.01\State=1-A\HF=-232.2
 106719\RMSD=2.190e-09\PG=C01 [X(C6H6)]\\@


 TELEVISION IS CALLED A MEDIUM BECAUSE IT ISN'T
 RARE, AND IT ISN'T WELL DONE.
 Job cpu time:       0 days  0 hours  3 minutes 18.2 seconds.
 Elapsed time:       0 days  0 hours  0 minutes 50.1 seconds.
 File lengths (MBytes):  RWF=    116 Int=      0 D2E=      0 Chk=      3 Scr=      1
 Normal termination of Gaussian 16 at Fri Nov 10 21:48:22 2023.
