 Entering Gaussian System, Link 0=g16
 Input=Geometry-376-.com
 Output=Geometry-376-.log
 Initial command:
 /home/shohei/gaussian/g16/l1.exe "/home/shohei/gaussian/scratch/Gau-23365.inp" -scrdir="/home/shohei/gaussian/scratch/"
 Entering Link 1 = /home/shohei/gaussian/g16/l1.exe PID=     23367.
  
 Copyright (c) 1988-2017, Gaussian, Inc.  All Rights Reserved.
  
 This is part of the Gaussian(R) 16 program.  It is based on
 the Gaussian(R) 09 system (copyright 2009, Gaussian, Inc.),
 the Gaussian(R) 03 system (copyright 2003, Gaussian, Inc.),
 the Gaussian(R) 98 system (copyright 1998, Gaussian, Inc.),
 the Gaussian(R) 94 system (copyright 1995, Gaussian, Inc.),
 the Gaussian 92(TM) system (copyright 1992, Gaussian, Inc.),
 the Gaussian 90(TM) system (copyright 1990, Gaussian, Inc.),
 the Gaussian 88(TM) system (copyright 1988, Gaussian, Inc.),
 the Gaussian 86(TM) system (copyright 1986, Carnegie Mellon
 University), and the Gaussian 82(TM) system (copyright 1983,
 Carnegie Mellon University). Gaussian is a federally registered
 trademark of Gaussian, Inc.
  
 This software contains proprietary and confidential information,
 including trade secrets, belonging to Gaussian, Inc.
  
 This software is provided under written license and may be
 used, copied, transmitted, or stored only in accord with that
 written license.
  
 The following legend is applicable only to US Government
 contracts under FAR:
  
                    RESTRICTED RIGHTS LEGEND
  
 Use, reproduction and disclosure by the US Government is
 subject to restrictions as set forth in subparagraphs (a)
 and (c) of the Commercial Computer Software - Restricted
 Rights clause in FAR 52.227-19.
  
 Gaussian, Inc.
 340 Quinnipiac St., Bldg. 40, Wallingford CT 06492
  
  
 ---------------------------------------------------------------
 Warning -- This program may not be used in any manner that
 competes with the business of Gaussian, Inc. or will provide
 assistance to any competitor of Gaussian, Inc.  The licensee
 of this program is prohibited from giving any competitor of
 Gaussian, Inc. access to this program.  By using this program,
 the user acknowledges that Gaussian, Inc. is engaged in the
 business of creating and licensing software in the field of
 computational chemistry and represents and warrants to the
 licensee that it is not a competitor of Gaussian, Inc. and that
 it will not use this program in any manner prohibited above.
 ---------------------------------------------------------------
  

 Cite this work as:
 Gaussian 16, Revision B.01,
 M. J. Frisch, G. W. Trucks, H. B. Schlegel, G. E. Scuseria, 
 M. A. Robb, J. R. Cheeseman, G. Scalmani, V. Barone, 
 G. A. Petersson, H. Nakatsuji, X. Li, M. Caricato, A. V. Marenich, 
 J. Bloino, B. G. Janesko, R. Gomperts, B. Mennucci, H. P. Hratchian, 
 J. V. Ortiz, A. F. Izmaylov, J. L. Sonnenberg, D. Williams-Young, 
 F. Ding, F. Lipparini, F. Egidi, J. Goings, B. Peng, A. Petrone, 
 T. Henderson, D. Ranasinghe, V. G. Zakrzewski, J. Gao, N. Rega, 
 G. Zheng, W. Liang, M. Hada, M. Ehara, K. Toyota, R. Fukuda, 
 J. Hasegawa, M. Ishida, T. Nakajima, Y. Honda, O. Kitao, H. Nakai, 
 T. Vreven, K. Throssell, J. A. Montgomery, Jr., J. E. Peralta, 
 F. Ogliaro, M. J. Bearpark, J. J. Heyd, E. N. Brothers, K. N. Kudin, 
 V. N. Staroverov, T. A. Keith, R. Kobayashi, J. Normand, 
 K. Raghavachari, A. P. Rendell, J. C. Burant, S. S. Iyengar, 
 J. Tomasi, M. Cossi, J. M. Millam, M. Klene, C. Adamo, R. Cammi, 
 J. W. Ochterski, R. L. Martin, K. Morokuma, O. Farkas, 
 J. B. Foresman, and D. J. Fox, Gaussian, Inc., Wallingford CT, 2016.
 
 ******************************************
 Gaussian 16:  EM64L-G16RevB.01 20-Dec-2017
                10-Nov-2023 
 ******************************************
 %nproc=4
 Will use up to    4 processors via shared memory.
 %Mem=2Gb
 ---------------------------------
 # TD=(NStates=1) B3LYP/6-31G(d,p)
 ---------------------------------
 1/38=1,172=1/1;
 2/12=2,17=6,18=5,40=1/2;
 3/5=1,6=6,7=101,11=9,25=1,30=1,74=-5/1,2,3,8;
 4//1;
 5/5=2,38=5/2;
 8/6=1,10=2,108=1/1;
 9/41=1,42=1,70=2/14;
 6/7=2,8=2,9=2,10=2/1;
 99/5=1,9=1/99;
 -------
 EMISPCT
 -------
 Symbolic Z-matrix:
 Charge =  0 Multiplicity = 1
 6                     0.35571   1.35092  -0.14795 
 6                     1.32624   0.34514   0.10523 
 6                     1.00465  -0.97026  -0.03273 
 6                    -0.32589  -1.3573   -0.03275 
 6                    -1.3977   -0.40928   0.00834 
 6                    -0.98774   1.01274   0.10239 
 1                     0.64613   2.4338   -0.17564 
 1                    -1.75246   1.86207  -0.03129 
 1                    -2.45142  -0.68832  -0.04983 
 1                    -0.51208  -2.33102   0.03968 
 1                     1.93012  -1.7105   -0.10363 
 1                     2.41334   0.78549   0.28627 
 
                          Input orientation:                          
 ---------------------------------------------------------------------
 Center     Atomic      Atomic             Coordinates (Angstroms)
 Number     Number       Type             X           Y           Z
 ---------------------------------------------------------------------
      1          6           0        0.355707    1.350919   -0.147953
      2          6           0        1.326245    0.345140    0.105230
      3          6           0        1.004648   -0.970262   -0.032734
      4          6           0       -0.325892   -1.357305   -0.032751
      5          6           0       -1.397700   -0.409282    0.008339
      6          6           0       -0.987744    1.012742    0.102388
      7          1           0        0.646134    2.433804   -0.175641
      8          1           0       -1.752460    1.862070   -0.031290
      9          1           0       -2.451423   -0.688323   -0.049830
     10          1           0       -0.512081   -2.331015    0.039684
     11          1           0        1.930115   -1.710500   -0.103627
     12          1           0        2.413337    0.785490    0.286272
 ---------------------------------------------------------------------
                    Distance matrix (angstroms):
                    1          2          3          4          5
     1  C    0.000000
     2  C    1.420435   0.000000
     3  C    2.412940   1.361154   0.000000
     4  C    2.795053   2.376323   1.385691   0.000000
     5  C    2.489411   2.828147   2.467318   1.431506   0.000000
     6  C    1.407797   2.408369   2.814283   2.464434   1.482923
     7  H    1.121497   2.214488   3.425875   3.916345   3.506315
     8  H    2.172384   3.434842   3.952690   3.521289   2.299232
     9  H    3.471039   3.919549   3.467594   2.228388   1.091596
    10  H    3.787466   3.247390   2.038960   0.993994   2.116214
    11  H    3.442820   2.152658   1.187210   2.284587   3.574921
    12  H    2.177637   1.186783   2.273507   3.492380   4.003589
                    6          7          8          9         10
     6  C    0.000000
     7  H    2.183180   0.000000
     8  H    1.150660   2.470014   0.000000
     9  H    2.249255   4.399814   2.644503   0.000000
    10  H    3.378002   4.908292   4.373276   2.543128   0.000000
    11  H    3.996548   4.339246   5.131262   4.499513   2.523866
    12  H    3.413621   2.460347   4.314364   5.094210   4.281528
                   11         12
    11  H    0.000000
    12  H    2.572060   0.000000
 Stoichiometry    C6H6
 Framework group  C1[X(C6H6)]
 Deg. of freedom    30
 Full point group                 C1      NOp   1
 Largest Abelian subgroup         C1      NOp   1
 Largest concise Abelian subgroup C1      NOp   1
                         Standard orientation:                         
 ---------------------------------------------------------------------
 Center     Atomic      Atomic             Coordinates (Angstroms)
 Number     Number       Type             X           Y           Z
 ---------------------------------------------------------------------
      1          6           0       -0.287751    1.361918   -0.147519
      2          6           0        1.031387    0.896962    0.100127
      3          6           0        1.331739   -0.423445   -0.037912
      4          6           0        0.315027   -1.364935   -0.032388
      5          6           0       -1.067496   -0.996657    0.014625
      6          6           0       -1.336737    0.458596    0.108475
      7          1           0       -0.512690    2.460275   -0.175259
      8          1           0       -2.401262    0.875850   -0.020776
      9          1           0       -1.885242   -1.717755   -0.039124
     10          1           0        0.584539   -2.318971    0.039757
     11          1           0        2.490281   -0.671409   -0.113828
     12          1           0        1.807354    1.777372    0.276784
 ---------------------------------------------------------------------
 Rotational constants (GHZ):           5.5878968           5.5186804           2.7973606
 Standard basis: 6-31G(d,p) (6D, 7F)
 There are   120 symmetry adapted cartesian basis functions of A   symmetry.
 There are   120 symmetry adapted basis functions of A   symmetry.
   120 basis functions,   210 primitive gaussians,   120 cartesian basis functions
    21 alpha electrons       21 beta electrons
       nuclear repulsion energy       200.6760526240 Hartrees.
 NAtoms=   12 NActive=   12 NUniq=   12 SFac= 1.00D+00 NAtFMM=   60 NAOKFM=F Big=F
 Integral buffers will be    131072 words long.
 Regular integral format.
 Two-electron integral symmetry is turned on.
 One-electron integrals computed using PRISM.
 NBasis=   120 RedAO= T EigKep=  1.18D-03  NBF=   120
 NBsUse=   120 1.00D-06 EigRej= -1.00D+00 NBFU=   120
 ExpMin= 1.61D-01 ExpMax= 3.05D+03 ExpMxC= 4.57D+02 IAcc=3 IRadAn=         5 AccDes= 0.00D+00
 Harris functional with IExCor=  402 and IRadAn=       5 diagonalized for initial guess.
 HarFok:  IExCor=  402 AccDes= 0.00D+00 IRadAn=         5 IDoV= 1 UseB2=F ITyADJ=14
 ICtDFT=  3500011 ScaDFX=  1.000000  1.000000  1.000000  1.000000
 FoFCou: FMM=F IPFlag=           0 FMFlag=      100000 FMFlg1=           0
         NFxFlg=           0 DoJE=T BraDBF=F KetDBF=T FulRan=T
         wScrn=  0.000000 ICntrl=       500 IOpCl=  0 I1Cent=   200000004 NGrid=           0
         NMat0=    1 NMatS0=      1 NMatT0=    0 NMatD0=    1 NMtDS0=    0 NMtDT0=    0
 Petite list used in FoFCou.
 Keep R1 ints in memory in canonical form, NReq=30147728.
 Requested convergence on RMS density matrix=1.00D-08 within 128 cycles.
 Requested convergence on MAX density matrix=1.00D-06.
 Requested convergence on             energy=1.00D-06.
 No special actions if energy rises.
 Integral accuracy reduced to 1.0D-05 until final iterations.
 Initial convergence to 1.0D-05 achieved.  Increase integral accuracy.
 SCF Done:  E(RB3LYP) =  -232.208041371     A.U. after   13 cycles
            NFock= 13  Conv=0.72D-08     -V/T= 2.0117
 DoSCS=F DFT=T ScalE2(SS,OS)=  1.000000  1.000000
 ExpMin= 1.61D-01 ExpMax= 3.05D+03 ExpMxC= 4.57D+02 IAcc=3 IRadAn=         5 AccDes= 0.00D+00
 HarFok:  IExCor=  205 AccDes= 0.00D+00 IRadAn=         5 IDoV=-2 UseB2=F ITyADJ=14
 ICtDFT= 12500011 ScaDFX=  1.000000  1.000000  1.000000  1.000000
 Range of M.O.s used for correlation:     7   120
 NBasis=   120 NAE=    21 NBE=    21 NFC=     6 NFV=     0
 NROrb=    114 NOA=    15 NOB=    15 NVA=    99 NVB=    99
 Keep R1, R2, and R3 ints in memory in canonical form, NReq=84032236.
 Orbital symmetries:
       Occupied  (A) (A) (A) (A) (A) (A) (A) (A) (A) (A) (A) (A)
                 (A) (A) (A) (A) (A) (A) (A) (A) (A)
       Virtual   (A) (A) (A) (A) (A) (A) (A) (A) (A) (A) (A) (A)
                 (A) (A) (A) (A) (A) (A) (A) (A) (A) (A) (A) (A)
                 (A) (A) (A) (A) (A) (A) (A) (A) (A) (A) (A) (A)
                 (A) (A) (A) (A) (A) (A) (A) (A) (A) (A) (A) (A)
                 (A) (A) (A) (A) (A) (A) (A) (A) (A) (A) (A) (A)
                 (A) (A) (A) (A) (A) (A) (A) (A) (A) (A) (A) (A)
                 (A) (A) (A) (A) (A) (A) (A) (A) (A) (A) (A) (A)
                 (A) (A) (A) (A) (A) (A) (A) (A) (A) (A) (A) (A)
                 (A) (A) (A)
     4 initial guesses have been made.
 Convergence on wavefunction:    0.001000000000000
 Iteration     1 Dimension     4 NMult     0 NNew      4
 CISAX will form     4 AO SS matrices at one time.
 New state      1 was old state      2
 Iteration     2 Dimension     6 NMult     4 NNew      2
 Iteration     3 Dimension     8 NMult     6 NNew      2
 Iteration     4 Dimension    10 NMult     8 NNew      2
 Iteration     5 Dimension    12 NMult    10 NNew      2
 ***********************************************************************
 Excited states from <AA,BB:AA,BB> singles matrix:
 ***********************************************************************
 
 Ground to excited state transition densities written to RWF  633
 Ground to excited state transition electric dipole moments (Au):
       state          X           Y           Z        Dip. S.      Osc.
         1         0.0409     -0.0485      0.0048      0.0040      0.0005
 Ground to excited state transition velocity dipole moments (Au):
       state          X           Y           Z        Dip. S.      Osc.
         1        -0.0092      0.0083      0.0001      0.0002      0.0005
 Ground to excited state transition magnetic dipole moments (Au):
       state          X           Y           Z
         1         0.0481     -0.0047     -0.0200
 Ground to excited state transition velocity quadrupole moments (Au):
       state          XX          YY          ZZ          XY          XZ          YZ
         1        -0.0113      0.0036      0.0016     -0.0063     -0.0208      0.0049
 <0|del|b> * <b|rxdel|0> + <0|del|b> * <b|delr+rdel|0>
 Rotatory Strengths (R) in cgs (10**-40 erg-esu-cm/Gauss)
       state          XX          YY          ZZ    R(velocity)    E-M Angle
         1         0.2446     -0.9211     -1.1465     -0.6077      138.36
 1/2[<0|r|b>*<b|rxdel|0> + (<0|rxdel|b>*<b|r|0>)*]
 Rotatory Strengths (R) in cgs (10**-40 erg-esu-cm/Gauss)
       state          XX          YY          ZZ     R(length)
         1        -1.3903     -0.1621      0.0672     -0.4951
  1/2[<0|del|b>*<b|r|0> + (<0|r|b>*<b|del|0>)*] (Au)
       state          X           Y           Z        Dip. S.   Osc.(frdel)
         1        -0.0004     -0.0004      0.0000      0.0008      0.0005

 Excitation energies and oscillator strengths:
 
 Excited State   1:      Singlet-A      5.1141 eV  242.44 nm  f=0.0005  <S**2>=0.000
      20 -> 22         0.47535
      21 -> 23         0.52224
 This state for optimization and/or second-order correction.
 Total Energy, E(TD-HF/TD-DFT) =  -232.020102885    
 Copying the excited state density for this state as the 1-particle RhoCI density.
 SavETr:  write IOETrn=   770 NScale= 10 NData=  16 NLR=1 NState=    1 LETran=      28.

 **********************************************************************

            Population analysis using the SCF Density.

 **********************************************************************

 Orbital symmetries:
       Occupied  (A) (A) (A) (A) (A) (A) (A) (A) (A) (A) (A) (A)
                 (A) (A) (A) (A) (A) (A) (A) (A) (A)
       Virtual   (A) (A) (A) (A) (A) (A) (A) (A) (A) (A) (A) (A)
                 (A) (A) (A) (A) (A) (A) (A) (A) (A) (A) (A) (A)
                 (A) (A) (A) (A) (A) (A) (A) (A) (A) (A) (A) (A)
                 (A) (A) (A) (A) (A) (A) (A) (A) (A) (A) (A) (A)
                 (A) (A) (A) (A) (A) (A) (A) (A) (A) (A) (A) (A)
                 (A) (A) (A) (A) (A) (A) (A) (A) (A) (A) (A) (A)
                 (A) (A) (A) (A) (A) (A) (A) (A) (A) (A) (A) (A)
                 (A) (A) (A) (A) (A) (A) (A) (A) (A) (A) (A) (A)
                 (A) (A) (A)
 The electronic state is 1-A.
 Alpha  occ. eigenvalues --  -10.20369 -10.20332 -10.19782 -10.19646 -10.19529
 Alpha  occ. eigenvalues --  -10.18540  -0.84319  -0.74050  -0.73083  -0.59926
 Alpha  occ. eigenvalues --   -0.58671  -0.50865  -0.45538  -0.43334  -0.41432
 Alpha  occ. eigenvalues --   -0.40640  -0.35984  -0.34400  -0.32695  -0.24703
 Alpha  occ. eigenvalues --   -0.23709
 Alpha virt. eigenvalues --   -0.01092  -0.00456   0.07345   0.12368   0.13658
 Alpha virt. eigenvalues --    0.13853   0.16446   0.17785   0.18548   0.27752
 Alpha virt. eigenvalues --    0.29047   0.31453   0.32127   0.46160   0.47153
 Alpha virt. eigenvalues --    0.50368   0.52812   0.56002   0.57825   0.58970
 Alpha virt. eigenvalues --    0.59570   0.60300   0.61384   0.62931   0.63135
 Alpha virt. eigenvalues --    0.66213   0.66720   0.73318   0.76550   0.77738
 Alpha virt. eigenvalues --    0.79624   0.82573   0.85116   0.88381   0.93412
 Alpha virt. eigenvalues --    0.94057   0.95696   0.99033   1.06841   1.08039
 Alpha virt. eigenvalues --    1.09505   1.10383   1.18545   1.31951   1.33448
 Alpha virt. eigenvalues --    1.36705   1.41459   1.45217   1.47295   1.52288
 Alpha virt. eigenvalues --    1.68390   1.72939   1.73903   1.79271   1.83105
 Alpha virt. eigenvalues --    1.91184   1.92537   1.94836   1.98990   1.99792
 Alpha virt. eigenvalues --    2.03599   2.06436   2.09708   2.19934   2.21505
 Alpha virt. eigenvalues --    2.26905   2.29949   2.32861   2.37264   2.38325
 Alpha virt. eigenvalues --    2.40184   2.42294   2.44060   2.46957   2.48452
 Alpha virt. eigenvalues --    2.49634   2.51660   2.56896   2.57411   2.59605
 Alpha virt. eigenvalues --    2.72594   2.74950   2.78669   2.93148   2.97936
 Alpha virt. eigenvalues --    2.98872   3.08936   3.16646   3.27136   3.31383
 Alpha virt. eigenvalues --    3.42231   3.52732   3.85418   4.11639   4.16732
 Alpha virt. eigenvalues --    4.17847   4.43142   4.43453   4.73056
          Condensed to atoms (all electrons):
               1          2          3          4          5          6
     1  C    4.855090   0.519454  -0.039132  -0.035649  -0.035559   0.535258
     2  C    0.519454   4.841106   0.548037  -0.035085  -0.041994  -0.032179
     3  C   -0.039132   0.548037   4.816975   0.533839  -0.026639  -0.044399
     4  C   -0.035649  -0.035085   0.533839   4.781115   0.536240  -0.025341
     5  C   -0.035559  -0.041994  -0.026639   0.536240   4.878618   0.491082
     6  C    0.535258  -0.032179  -0.044399  -0.025341   0.491082   4.890507
     7  H    0.364221  -0.039163   0.005188   0.000176   0.004454  -0.041359
     8  H   -0.042767   0.004866   0.000536   0.003331  -0.034742   0.355659
     9  H    0.003592   0.000334   0.003859  -0.036596   0.371864  -0.039475
    10  H    0.000544   0.006828  -0.048247   0.380777  -0.049126   0.005428
    11  H    0.004471  -0.043385   0.359056  -0.033841   0.003478   0.000223
    12  H   -0.045767   0.353439  -0.032806   0.004472   0.000482   0.004960
               7          8          9         10         11         12
     1  C    0.364221  -0.042767   0.003592   0.000544   0.004471  -0.045767
     2  C   -0.039163   0.004866   0.000334   0.006828  -0.043385   0.353439
     3  C    0.005188   0.000536   0.003859  -0.048247   0.359056  -0.032806
     4  C    0.000176   0.003331  -0.036596   0.380777  -0.033841   0.004472
     5  C    0.004454  -0.034742   0.371864  -0.049126   0.003478   0.000482
     6  C   -0.041359   0.355659  -0.039475   0.005428   0.000223   0.004960
     7  H    0.633099  -0.006810  -0.000130   0.000012  -0.000169  -0.007019
     8  H   -0.006810   0.642177  -0.003505  -0.000149   0.000012  -0.000202
     9  H   -0.000130  -0.003505   0.607786  -0.005252  -0.000099   0.000010
    10  H    0.000012  -0.000149  -0.005252   0.632947  -0.006194  -0.000203
    11  H   -0.000169   0.000012  -0.000099  -0.006194   0.637141  -0.006597
    12  H   -0.007019  -0.000202   0.000010  -0.000203  -0.006597   0.650244
 Mulliken charges:
               1
     1  C   -0.083756
     2  C   -0.082257
     3  C   -0.076266
     4  C   -0.073438
     5  C   -0.098158
     6  C   -0.100364
     7  H    0.087500
     8  H    0.081594
     9  H    0.097612
    10  H    0.082636
    11  H    0.085906
    12  H    0.078988
 Sum of Mulliken charges =  -0.00000
 Mulliken charges with hydrogens summed into heavy atoms:
               1
     1  C    0.003744
     2  C   -0.003268
     3  C    0.009640
     4  C    0.009199
     5  C   -0.000545
     6  C   -0.018769
 Electronic spatial extent (au):  <R**2>=            467.6445
 Charge=             -0.0000 electrons
 Dipole moment (field-independent basis, Debye):
    X=              0.0260    Y=             -0.0121    Z=             -0.0336  Tot=              0.0441
 Quadrupole moment (field-independent basis, Debye-Ang):
   XX=            -31.9626   YY=            -31.4995   ZZ=            -38.8218
   XY=              0.1185   XZ=              0.3340   YZ=              0.0461
 Traceless Quadrupole moment (field-independent basis, Debye-Ang):
   XX=              2.1321   YY=              2.5951   ZZ=             -4.7272
   XY=              0.1185   XZ=              0.3340   YZ=              0.0461
 Octapole moment (field-independent basis, Debye-Ang**2):
  XXX=             -0.0581  YYY=              0.0322  ZZZ=             -0.0570  XYY=             -0.7068
  XXY=             -0.9977  XXZ=             -0.4660  XZZ=              0.3273  YZZ=             -0.2105
  YYZ=              0.0130  XYZ=              0.6641
 Hexadecapole moment (field-independent basis, Debye-Ang**3):
 XXXX=           -283.4018 YYYY=           -273.7758 ZZZZ=            -42.6072 XXXY=             -0.0441
 XXXZ=              0.8404 YYYX=              1.0708 YYYZ=             -0.8621 ZZZX=              0.3238
 ZZZY=             -0.0224 XXYY=            -92.0549 XXZZ=            -63.3570 YYZZ=            -61.3650
 XXYZ=              1.2813 YYXZ=              1.9409 ZZXY=              0.0107
 N-N= 2.006760526240D+02 E-N=-9.382876345702D+02  KE= 2.295189293940D+02
 1\1\GINC-DESKTOP-PRN5QE3\SP\RB3LYP TD-FC\6-31G(d,p)\C6H6\SHOHEI\10-Nov
 -2023\0\\# TD=(NStates=1) B3LYP/6-31G(d,p)\\EMISPCT\\0,1\C,0,0.3557066
 555,1.350918677,-0.1479530398\C,0,1.3262446094,0.3451401131,0.10522993
 09\C,0,1.0046481672,-0.9702619885,-0.0327342829\C,0,-0.3258916307,-1.3
 573049182,-0.0327510749\C,0,-1.3976996245,-0.4092819352,0.0083389305\C
 ,0,-0.9877438616,1.0127419351,0.1023882132\H,0,0.646133973,2.433804241
 4,-0.1756405737\H,0,-1.7524602263,1.8620701931,-0.031290145\H,0,-2.451
 4231967,-0.6883228396,-0.0498304963\H,0,-0.512080509,-2.3310152732,0.0
 396843262\H,0,1.9301152812,-1.7105001924,-0.1036274066\H,0,2.413336708
 2,0.7854904829,0.2862717094\\Version=EM64L-G16RevB.01\State=1-A\HF=-23
 2.2080414\RMSD=7.209e-09\PG=C01 [X(C6H6)]\\@


 THE DIFFERENCE BETWEEN A NOOSE AND A HALO IS ONLY 12 INCHES.
 Job cpu time:       0 days  0 hours  3 minutes 10.4 seconds.
 Elapsed time:       0 days  0 hours  0 minutes 48.1 seconds.
 File lengths (MBytes):  RWF=    116 Int=      0 D2E=      0 Chk=      3 Scr=      1
 Normal termination of Gaussian 16 at Fri Nov 10 21:19:28 2023.
