 Entering Gaussian System, Link 0=g16
 Input=Geometry-484-.com
 Output=Geometry-484-.log
 Initial command:
 /home/shohei/gaussian/g16/l1.exe "/home/shohei/gaussian/scratch/Gau-32589.inp" -scrdir="/home/shohei/gaussian/scratch/"
 Entering Link 1 = /home/shohei/gaussian/g16/l1.exe PID=     32591.
  
 Copyright (c) 1988-2017, Gaussian, Inc.  All Rights Reserved.
  
 This is part of the Gaussian(R) 16 program.  It is based on
 the Gaussian(R) 09 system (copyright 2009, Gaussian, Inc.),
 the Gaussian(R) 03 system (copyright 2003, Gaussian, Inc.),
 the Gaussian(R) 98 system (copyright 1998, Gaussian, Inc.),
 the Gaussian(R) 94 system (copyright 1995, Gaussian, Inc.),
 the Gaussian 92(TM) system (copyright 1992, Gaussian, Inc.),
 the Gaussian 90(TM) system (copyright 1990, Gaussian, Inc.),
 the Gaussian 88(TM) system (copyright 1988, Gaussian, Inc.),
 the Gaussian 86(TM) system (copyright 1986, Carnegie Mellon
 University), and the Gaussian 82(TM) system (copyright 1983,
 Carnegie Mellon University). Gaussian is a federally registered
 trademark of Gaussian, Inc.
  
 This software contains proprietary and confidential information,
 including trade secrets, belonging to Gaussian, Inc.
  
 This software is provided under written license and may be
 used, copied, transmitted, or stored only in accord with that
 written license.
  
 The following legend is applicable only to US Government
 contracts under FAR:
  
                    RESTRICTED RIGHTS LEGEND
  
 Use, reproduction and disclosure by the US Government is
 subject to restrictions as set forth in subparagraphs (a)
 and (c) of the Commercial Computer Software - Restricted
 Rights clause in FAR 52.227-19.
  
 Gaussian, Inc.
 340 Quinnipiac St., Bldg. 40, Wallingford CT 06492
  
  
 ---------------------------------------------------------------
 Warning -- This program may not be used in any manner that
 competes with the business of Gaussian, Inc. or will provide
 assistance to any competitor of Gaussian, Inc.  The licensee
 of this program is prohibited from giving any competitor of
 Gaussian, Inc. access to this program.  By using this program,
 the user acknowledges that Gaussian, Inc. is engaged in the
 business of creating and licensing software in the field of
 computational chemistry and represents and warrants to the
 licensee that it is not a competitor of Gaussian, Inc. and that
 it will not use this program in any manner prohibited above.
 ---------------------------------------------------------------
  

 Cite this work as:
 Gaussian 16, Revision B.01,
 M. J. Frisch, G. W. Trucks, H. B. Schlegel, G. E. Scuseria, 
 M. A. Robb, J. R. Cheeseman, G. Scalmani, V. Barone, 
 G. A. Petersson, H. Nakatsuji, X. Li, M. Caricato, A. V. Marenich, 
 J. Bloino, B. G. Janesko, R. Gomperts, B. Mennucci, H. P. Hratchian, 
 J. V. Ortiz, A. F. Izmaylov, J. L. Sonnenberg, D. Williams-Young, 
 F. Ding, F. Lipparini, F. Egidi, J. Goings, B. Peng, A. Petrone, 
 T. Henderson, D. Ranasinghe, V. G. Zakrzewski, J. Gao, N. Rega, 
 G. Zheng, W. Liang, M. Hada, M. Ehara, K. Toyota, R. Fukuda, 
 J. Hasegawa, M. Ishida, T. Nakajima, Y. Honda, O. Kitao, H. Nakai, 
 T. Vreven, K. Throssell, J. A. Montgomery, Jr., J. E. Peralta, 
 F. Ogliaro, M. J. Bearpark, J. J. Heyd, E. N. Brothers, K. N. Kudin, 
 V. N. Staroverov, T. A. Keith, R. Kobayashi, J. Normand, 
 K. Raghavachari, A. P. Rendell, J. C. Burant, S. S. Iyengar, 
 J. Tomasi, M. Cossi, J. M. Millam, M. Klene, C. Adamo, R. Cammi, 
 J. W. Ochterski, R. L. Martin, K. Morokuma, O. Farkas, 
 J. B. Foresman, and D. J. Fox, Gaussian, Inc., Wallingford CT, 2016.
 
 ******************************************
 Gaussian 16:  EM64L-G16RevB.01 20-Dec-2017
                10-Nov-2023 
 ******************************************
 %nproc=4
 Will use up to    4 processors via shared memory.
 %Mem=2Gb
 ---------------------------------
 # TD=(NStates=1) B3LYP/6-31G(d,p)
 ---------------------------------
 1/38=1,172=1/1;
 2/12=2,17=6,18=5,40=1/2;
 3/5=1,6=6,7=101,11=9,25=1,30=1,74=-5/1,2,3,8;
 4//1;
 5/5=2,38=5/2;
 8/6=1,10=2,108=1/1;
 9/41=1,42=1,70=2/14;
 6/7=2,8=2,9=2,10=2/1;
 99/5=1,9=1/99;
 -------
 EMISPCT
 -------
 Symbolic Z-matrix:
 Charge =  0 Multiplicity = 1
 6                     0.3317    1.32178  -0.0548 
 6                     1.35183   0.3102    0.06313 
 6                     1.03049  -0.99381   0.0103 
 6                    -0.27902  -1.32475  -0.13022 
 6                    -1.40486  -0.34677   0.07572 
 6                    -1.02501   1.02913   0.02248 
 1                     0.53333   2.23736  -0.40358 
 1                    -1.72681   1.73069   0.13984 
 1                    -2.54544  -0.74274   0.08302 
 1                    -0.68891  -2.45264  -0.02002 
 1                     1.95368  -1.53521   0.32587 
 1                     2.40504   0.82487   0.05794 
 
                          Input orientation:                          
 ---------------------------------------------------------------------
 Center     Atomic      Atomic             Coordinates (Angstroms)
 Number     Number       Type             X           Y           Z
 ---------------------------------------------------------------------
      1          6           0        0.331695    1.321779   -0.054803
      2          6           0        1.351832    0.310202    0.063132
      3          6           0        1.030490   -0.993811    0.010301
      4          6           0       -0.279016   -1.324748   -0.130221
      5          6           0       -1.404862   -0.346768    0.075719
      6          6           0       -1.025008    1.029128    0.022475
      7          1           0        0.533328    2.237360   -0.403581
      8          1           0       -1.726809    1.730693    0.139839
      9          1           0       -2.545438   -0.742738    0.083018
     10          1           0       -0.688906   -2.452637   -0.020016
     11          1           0        1.953683   -1.535211    0.325866
     12          1           0        2.405039    0.824871    0.057943
 ---------------------------------------------------------------------
                    Distance matrix (angstroms):
                    1          2          3          4          5
     1  C    0.000000
     2  C    1.441484   0.000000
     3  C    2.419609   1.344062   0.000000
     4  C    2.717124   2.317351   1.357966   0.000000
     5  C    2.411787   2.833925   2.520691   1.505452   0.000000
     6  C    1.390057   2.483521   2.884008   2.473975   1.428360
     7  H    1.000296   2.145159   3.295289   3.663775   3.265582
     8  H    2.107732   3.391417   3.878453   3.391866   2.103236
     9  H    3.543885   4.037053   3.585470   2.349655   1.207378
    10  H    3.910122   3.435813   2.255087   1.205110   2.226307
    11  H    3.307286   1.958776   1.115787   2.288505   3.571386
    12  H    2.135038   1.172244   2.280188   3.443896   3.986026
                    6          7          8          9         10
     6  C    0.000000
     7  H    2.017365   0.000000
     8  H    0.999246   2.379125   0.000000
     9  H    2.335570   4.312374   2.606002   0.000000
    10  H    3.498208   4.861795   4.313125   2.526080   0.000000
    11  H    3.942141   4.096558   4.924099   4.574831   2.818614
    12  H    3.436306   2.389860   4.230767   5.192808   4.507842
                   11         12
    11  H    0.000000
    12  H    2.417745   0.000000
 Stoichiometry    C6H6
 Framework group  C1[X(C6H6)]
 Deg. of freedom    30
 Full point group                 C1      NOp   1
 Largest Abelian subgroup         C1      NOp   1
 Largest concise Abelian subgroup C1      NOp   1
                         Standard orientation:                         
 ---------------------------------------------------------------------
 Center     Atomic      Atomic             Coordinates (Angstroms)
 Number     Number       Type             X           Y           Z
 ---------------------------------------------------------------------
      1          6           0       -0.066321   -1.360978    0.044885
      2          6           0        1.204378   -0.689028   -0.063198
      3          6           0        1.276230    0.651535    0.001835
      4          6           0        0.119267    1.347948    0.145082
      5          6           0       -1.241809    0.741794   -0.070410
      6          6           0       -1.278919   -0.685513   -0.030034
      7          1           0       -0.140891   -2.298690    0.385071
      8          1           0       -2.154137   -1.151414   -0.154220
      9          1           0       -2.217781    1.452585   -0.074314
     10          1           0        0.055648    2.547241    0.045399
     11          1           0        2.317965    0.903654   -0.308334
     12          1           0        2.062229   -1.487931   -0.062550
 ---------------------------------------------------------------------
 Rotational constants (GHZ):           5.8796155           5.2921084           2.8057676
 Standard basis: 6-31G(d,p) (6D, 7F)
 There are   120 symmetry adapted cartesian basis functions of A   symmetry.
 There are   120 symmetry adapted basis functions of A   symmetry.
   120 basis functions,   210 primitive gaussians,   120 cartesian basis functions
    21 alpha electrons       21 beta electrons
       nuclear repulsion energy       201.3637139876 Hartrees.
 NAtoms=   12 NActive=   12 NUniq=   12 SFac= 1.00D+00 NAtFMM=   60 NAOKFM=F Big=F
 Integral buffers will be    131072 words long.
 Regular integral format.
 Two-electron integral symmetry is turned on.
 One-electron integrals computed using PRISM.
 NBasis=   120 RedAO= T EigKep=  9.07D-04  NBF=   120
 NBsUse=   120 1.00D-06 EigRej= -1.00D+00 NBFU=   120
 ExpMin= 1.61D-01 ExpMax= 3.05D+03 ExpMxC= 4.57D+02 IAcc=3 IRadAn=         5 AccDes= 0.00D+00
 Harris functional with IExCor=  402 and IRadAn=       5 diagonalized for initial guess.
 HarFok:  IExCor=  402 AccDes= 0.00D+00 IRadAn=         5 IDoV= 1 UseB2=F ITyADJ=14
 ICtDFT=  3500011 ScaDFX=  1.000000  1.000000  1.000000  1.000000
 FoFCou: FMM=F IPFlag=           0 FMFlag=      100000 FMFlg1=           0
         NFxFlg=           0 DoJE=T BraDBF=F KetDBF=T FulRan=T
         wScrn=  0.000000 ICntrl=       500 IOpCl=  0 I1Cent=   200000004 NGrid=           0
         NMat0=    1 NMatS0=      1 NMatT0=    0 NMatD0=    1 NMtDS0=    0 NMtDT0=    0
 Petite list used in FoFCou.
 Keep R1 ints in memory in canonical form, NReq=30147728.
 Requested convergence on RMS density matrix=1.00D-08 within 128 cycles.
 Requested convergence on MAX density matrix=1.00D-06.
 Requested convergence on             energy=1.00D-06.
 No special actions if energy rises.
 Integral accuracy reduced to 1.0D-05 until final iterations.
 Initial convergence to 1.0D-05 achieved.  Increase integral accuracy.
 SCF Done:  E(RB3LYP) =  -232.179702537     A.U. after   14 cycles
            NFock= 14  Conv=0.42D-08     -V/T= 2.0109
 DoSCS=F DFT=T ScalE2(SS,OS)=  1.000000  1.000000
 ExpMin= 1.61D-01 ExpMax= 3.05D+03 ExpMxC= 4.57D+02 IAcc=3 IRadAn=         5 AccDes= 0.00D+00
 HarFok:  IExCor=  205 AccDes= 0.00D+00 IRadAn=         5 IDoV=-2 UseB2=F ITyADJ=14
 ICtDFT= 12500011 ScaDFX=  1.000000  1.000000  1.000000  1.000000
 Range of M.O.s used for correlation:     7   120
 NBasis=   120 NAE=    21 NBE=    21 NFC=     6 NFV=     0
 NROrb=    114 NOA=    15 NOB=    15 NVA=    99 NVB=    99
 Keep R1, R2, and R3 ints in memory in canonical form, NReq=84032236.
 Orbital symmetries:
       Occupied  (A) (A) (A) (A) (A) (A) (A) (A) (A) (A) (A) (A)
                 (A) (A) (A) (A) (A) (A) (A) (A) (A)
       Virtual   (A) (A) (A) (A) (A) (A) (A) (A) (A) (A) (A) (A)
                 (A) (A) (A) (A) (A) (A) (A) (A) (A) (A) (A) (A)
                 (A) (A) (A) (A) (A) (A) (A) (A) (A) (A) (A) (A)
                 (A) (A) (A) (A) (A) (A) (A) (A) (A) (A) (A) (A)
                 (A) (A) (A) (A) (A) (A) (A) (A) (A) (A) (A) (A)
                 (A) (A) (A) (A) (A) (A) (A) (A) (A) (A) (A) (A)
                 (A) (A) (A) (A) (A) (A) (A) (A) (A) (A) (A) (A)
                 (A) (A) (A) (A) (A) (A) (A) (A) (A) (A) (A) (A)
                 (A) (A) (A)
     4 initial guesses have been made.
 Convergence on wavefunction:    0.001000000000000
 Iteration     1 Dimension     4 NMult     0 NNew      4
 CISAX will form     4 AO SS matrices at one time.
 New state      1 was old state      2
 Iteration     2 Dimension     6 NMult     4 NNew      2
 Iteration     3 Dimension     8 NMult     6 NNew      2
 Iteration     4 Dimension    10 NMult     8 NNew      2
 Iteration     5 Dimension    12 NMult    10 NNew      2
 Iteration     6 Dimension    14 NMult    12 NNew      2
 Iteration     7 Dimension    16 NMult    14 NNew      2
 ***********************************************************************
 Excited states from <AA,BB:AA,BB> singles matrix:
 ***********************************************************************
 
 Ground to excited state transition densities written to RWF  633
 Ground to excited state transition electric dipole moments (Au):
       state          X           Y           Z        Dip. S.      Osc.
         1        -0.0188      0.0878      0.0147      0.0083      0.0010
 Ground to excited state transition velocity dipole moments (Au):
       state          X           Y           Z        Dip. S.      Osc.
         1         0.0070     -0.0176     -0.0036      0.0004      0.0013
 Ground to excited state transition magnetic dipole moments (Au):
       state          X           Y           Z
         1        -0.0309     -0.0046     -0.0336
 Ground to excited state transition velocity quadrupole moments (Au):
       state          XX          YY          ZZ          XY          XZ          YZ
         1         0.0167     -0.0048     -0.0025     -0.0051      0.0341     -0.0170
 <0|del|b> * <b|rxdel|0> + <0|del|b> * <b|delr+rdel|0>
 Rotatory Strengths (R) in cgs (10**-40 erg-esu-cm/Gauss)
       state          XX          YY          ZZ    R(velocity)    E-M Angle
         1         1.5239     -0.4380     -1.1471     -0.0204       90.00
 1/2[<0|r|b>*<b|rxdel|0> + (<0|rxdel|b>*<b|r|0>)*]
 Rotatory Strengths (R) in cgs (10**-40 erg-esu-cm/Gauss)
       state          XX          YY          ZZ     R(length)
         1        -0.4117      0.2882      0.3488      0.0751
  1/2[<0|del|b>*<b|r|0> + (<0|r|b>*<b|del|0>)*] (Au)
       state          X           Y           Z        Dip. S.   Osc.(frdel)
         1        -0.0001     -0.0015     -0.0001      0.0017      0.0012

 Excitation energies and oscillator strengths:
 
 Excited State   1:      Singlet-A      5.1658 eV  240.01 nm  f=0.0010  <S**2>=0.000
      20 -> 22        -0.46968
      21 -> 23         0.52404
 This state for optimization and/or second-order correction.
 Total Energy, E(TD-HF/TD-DFT) =  -231.989864678    
 Copying the excited state density for this state as the 1-particle RhoCI density.
 SavETr:  write IOETrn=   770 NScale= 10 NData=  16 NLR=1 NState=    1 LETran=      28.

 **********************************************************************

            Population analysis using the SCF Density.

 **********************************************************************

 Orbital symmetries:
       Occupied  (A) (A) (A) (A) (A) (A) (A) (A) (A) (A) (A) (A)
                 (A) (A) (A) (A) (A) (A) (A) (A) (A)
       Virtual   (A) (A) (A) (A) (A) (A) (A) (A) (A) (A) (A) (A)
                 (A) (A) (A) (A) (A) (A) (A) (A) (A) (A) (A) (A)
                 (A) (A) (A) (A) (A) (A) (A) (A) (A) (A) (A) (A)
                 (A) (A) (A) (A) (A) (A) (A) (A) (A) (A) (A) (A)
                 (A) (A) (A) (A) (A) (A) (A) (A) (A) (A) (A) (A)
                 (A) (A) (A) (A) (A) (A) (A) (A) (A) (A) (A) (A)
                 (A) (A) (A) (A) (A) (A) (A) (A) (A) (A) (A) (A)
                 (A) (A) (A) (A) (A) (A) (A) (A) (A) (A) (A) (A)
                 (A) (A) (A)
 The electronic state is 1-A.
 Alpha  occ. eigenvalues --  -10.21432 -10.20843 -10.19431 -10.19059 -10.18495
 Alpha  occ. eigenvalues --  -10.17955  -0.84627  -0.75541  -0.72143  -0.60257
 Alpha  occ. eigenvalues --   -0.59024  -0.51050  -0.46849  -0.43480  -0.42145
 Alpha  occ. eigenvalues --   -0.39364  -0.35860  -0.34264  -0.31603  -0.25716
 Alpha  occ. eigenvalues --   -0.23257
 Alpha virt. eigenvalues --   -0.01831   0.00071   0.07421   0.11763   0.13169
 Alpha virt. eigenvalues --    0.14620   0.15969   0.17421   0.19780   0.26558
 Alpha virt. eigenvalues --    0.28881   0.31694   0.32991   0.45349   0.50324
 Alpha virt. eigenvalues --    0.51699   0.52621   0.55600   0.58053   0.59376
 Alpha virt. eigenvalues --    0.60228   0.61273   0.62402   0.63316   0.64614
 Alpha virt. eigenvalues --    0.66787   0.67274   0.73175   0.75357   0.78508
 Alpha virt. eigenvalues --    0.80727   0.83045   0.86402   0.90313   0.93160
 Alpha virt. eigenvalues --    0.94181   0.96096   1.01579   1.04810   1.07591
 Alpha virt. eigenvalues --    1.09252   1.15766   1.19531   1.26816   1.31902
 Alpha virt. eigenvalues --    1.36090   1.41382   1.43164   1.52209   1.55565
 Alpha virt. eigenvalues --    1.68250   1.73244   1.74609   1.77475   1.82700
 Alpha virt. eigenvalues --    1.88853   1.95122   1.96217   1.98694   2.02501
 Alpha virt. eigenvalues --    2.03791   2.07187   2.07636   2.21636   2.25266
 Alpha virt. eigenvalues --    2.25855   2.30471   2.31748   2.35667   2.36946
 Alpha virt. eigenvalues --    2.41782   2.44128   2.44848   2.46080   2.49106
 Alpha virt. eigenvalues --    2.50591   2.55187   2.57413   2.60581   2.70954
 Alpha virt. eigenvalues --    2.71448   2.73569   2.77439   2.90399   2.95282
 Alpha virt. eigenvalues --    3.06506   3.09381   3.19627   3.26026   3.41157
 Alpha virt. eigenvalues --    3.56362   3.59218   3.86160   4.11801   4.15699
 Alpha virt. eigenvalues --    4.20389   4.41169   4.46503   4.77501
          Condensed to atoms (all electrons):
               1          2          3          4          5          6
     1  C    4.818761   0.540600  -0.045853  -0.041717  -0.041045   0.549819
     2  C    0.540600   4.856819   0.532302  -0.040819  -0.037515  -0.027129
     3  C   -0.045853   0.532302   4.796393   0.534499  -0.028277  -0.040470
     4  C   -0.041717  -0.040819   0.534499   4.905026   0.501099  -0.031182
     5  C   -0.041045  -0.037515  -0.028277   0.501099   4.906028   0.523280
     6  C    0.549819  -0.027129  -0.040470  -0.031182   0.523280   4.794482
     7  H    0.377384  -0.043595   0.006897   0.000313   0.006520  -0.052021
     8  H   -0.046237   0.005558   0.000282   0.005307  -0.049609   0.378017
     9  H    0.003797   0.000251   0.003052  -0.032571   0.353583  -0.032780
    10  H    0.000842   0.004328  -0.035566   0.348848  -0.040535   0.003865
    11  H    0.005849  -0.053328   0.367652  -0.032533   0.002686   0.000391
    12  H   -0.042848   0.358215  -0.035588   0.004415   0.000493   0.004575
               7          8          9         10         11         12
     1  C    0.377384  -0.046237   0.003797   0.000842   0.005849  -0.042848
     2  C   -0.043595   0.005558   0.000251   0.004328  -0.053328   0.358215
     3  C    0.006897   0.000282   0.003052  -0.035566   0.367652  -0.035588
     4  C    0.000313   0.005307  -0.032571   0.348848  -0.032533   0.004415
     5  C    0.006520  -0.049609   0.353583  -0.040535   0.002686   0.000493
     6  C   -0.052021   0.378017  -0.032780   0.003865   0.000391   0.004575
     7  H    0.634975  -0.007837  -0.000183   0.000011  -0.000333  -0.006284
     8  H   -0.007837   0.634187  -0.004038  -0.000197   0.000025  -0.000204
     9  H   -0.000183  -0.004038   0.622221  -0.004150  -0.000065   0.000006
    10  H    0.000011  -0.000197  -0.004150   0.653905  -0.004647  -0.000117
    11  H   -0.000333   0.000025  -0.000065  -0.004647   0.620509  -0.007454
    12  H   -0.006284  -0.000204   0.000006  -0.000117  -0.007454   0.640623
 Mulliken charges:
               1
     1  C   -0.079351
     2  C   -0.095687
     3  C   -0.055323
     4  C   -0.120686
     5  C   -0.096710
     6  C   -0.070847
     7  H    0.084152
     8  H    0.084746
     9  H    0.090878
    10  H    0.073413
    11  H    0.101248
    12  H    0.084167
 Sum of Mulliken charges =  -0.00000
 Mulliken charges with hydrogens summed into heavy atoms:
               1
     1  C    0.004801
     2  C   -0.011519
     3  C    0.045924
     4  C   -0.047273
     5  C   -0.005832
     6  C    0.013899
 Electronic spatial extent (au):  <R**2>=            465.7449
 Charge=             -0.0000 electrons
 Dipole moment (field-independent basis, Debye):
    X=             -0.1318    Y=             -0.2895    Z=             -0.1058  Tot=              0.3352
 Quadrupole moment (field-independent basis, Debye-Ang):
   XX=            -31.2522   YY=            -32.5467   ZZ=            -38.5748
   XY=             -0.4767   XZ=             -0.3191   YZ=             -0.7887
 Traceless Quadrupole moment (field-independent basis, Debye-Ang):
   XX=              2.8724   YY=              1.5779   ZZ=             -4.4502
   XY=             -0.4767   XZ=             -0.3191   YZ=             -0.7887
 Octapole moment (field-independent basis, Debye-Ang**2):
  XXX=             -0.8706  YYY=             -2.2944  ZZZ=             -0.0045  XYY=             -1.8177
  XXY=             -0.6741  XXZ=             -2.2452  XZZ=              0.2498  YZZ=             -1.0906
  YYZ=              1.0052  XYZ=             -0.4586
 Hexadecapole moment (field-independent basis, Debye-Ang**3):
 XXXX=           -285.9510 YYYY=           -272.3976 ZZZZ=            -42.5374 XXXY=             -1.5285
 XXXZ=             -2.1173 YYYX=             -3.2613 YYYZ=             -4.9423 ZZZX=             -0.2892
 ZZZY=             -1.1719 XXYY=            -92.1350 XXZZ=            -63.6982 YYZZ=            -59.5479
 XXYZ=             -0.9225 YYXZ=             -0.3338 ZZXY=              1.1724
 N-N= 2.013637139876D+02 E-N=-9.397364687898D+02  KE= 2.296834582172D+02
 1\1\GINC-DESKTOP-PRN5QE3\SP\RB3LYP TD-FC\6-31G(d,p)\C6H6\SHOHEI\10-Nov
 -2023\0\\# TD=(NStates=1) B3LYP/6-31G(d,p)\\EMISPCT\\0,1\C,0,0.3316951
 167,1.3217788317,-0.0548029397\C,0,1.3518324481,0.3102024176,0.0631316
 32\C,0,1.0304904178,-0.9938105501,0.0103014332\C,0,-0.2790158771,-1.32
 47481983,-0.1302208642\C,0,-1.4048620209,-0.3467676487,0.075719483\C,0
 ,-1.0250076057,1.0291276988,0.0224751759\H,0,0.533328464,2.2373599439,
 -0.4035812733\H,0,-1.7268087732,1.7306927737,0.1398388661\H,0,-2.54543
 84364,-0.7427384531,0.0830182291\H,0,-0.6889062418,-2.4526372725,-0.02
 00158651\H,0,1.9536831317,-1.5352107336,0.3258664349\H,0,2.4050393,0.8
 248707494,0.0579426979\\Version=EM64L-G16RevB.01\State=1-A\HF=-232.179
 7025\RMSD=4.166e-09\PG=C01 [X(C6H6)]\\@


 HICKORY, DICKORY, DOCK
 TWO MICE RAN UP THE CLOCK
 THE CLOCK STRUCK ONE...
 THE OTHER ESCAPED WITH MINOR INJURIES.
 Job cpu time:       0 days  0 hours  4 minutes 41.1 seconds.
 Elapsed time:       0 days  0 hours  1 minutes 10.9 seconds.
 File lengths (MBytes):  RWF=    116 Int=      0 D2E=      0 Chk=      3 Scr=      1
 Normal termination of Gaussian 16 at Fri Nov 10 22:49:56 2023.
