 Entering Gaussian System, Link 0=g16
 Input=Geometry-268-.com
 Output=Geometry-268-.log
 Initial command:
 /home/shohei/gaussian/g16/l1.exe "/home/shohei/gaussian/scratch/Gau-14243.inp" -scrdir="/home/shohei/gaussian/scratch/"
 Entering Link 1 = /home/shohei/gaussian/g16/l1.exe PID=     14245.
  
 Copyright (c) 1988-2017, Gaussian, Inc.  All Rights Reserved.
  
 This is part of the Gaussian(R) 16 program.  It is based on
 the Gaussian(R) 09 system (copyright 2009, Gaussian, Inc.),
 the Gaussian(R) 03 system (copyright 2003, Gaussian, Inc.),
 the Gaussian(R) 98 system (copyright 1998, Gaussian, Inc.),
 the Gaussian(R) 94 system (copyright 1995, Gaussian, Inc.),
 the Gaussian 92(TM) system (copyright 1992, Gaussian, Inc.),
 the Gaussian 90(TM) system (copyright 1990, Gaussian, Inc.),
 the Gaussian 88(TM) system (copyright 1988, Gaussian, Inc.),
 the Gaussian 86(TM) system (copyright 1986, Carnegie Mellon
 University), and the Gaussian 82(TM) system (copyright 1983,
 Carnegie Mellon University). Gaussian is a federally registered
 trademark of Gaussian, Inc.
  
 This software contains proprietary and confidential information,
 including trade secrets, belonging to Gaussian, Inc.
  
 This software is provided under written license and may be
 used, copied, transmitted, or stored only in accord with that
 written license.
  
 The following legend is applicable only to US Government
 contracts under FAR:
  
                    RESTRICTED RIGHTS LEGEND
  
 Use, reproduction and disclosure by the US Government is
 subject to restrictions as set forth in subparagraphs (a)
 and (c) of the Commercial Computer Software - Restricted
 Rights clause in FAR 52.227-19.
  
 Gaussian, Inc.
 340 Quinnipiac St., Bldg. 40, Wallingford CT 06492
  
  
 ---------------------------------------------------------------
 Warning -- This program may not be used in any manner that
 competes with the business of Gaussian, Inc. or will provide
 assistance to any competitor of Gaussian, Inc.  The licensee
 of this program is prohibited from giving any competitor of
 Gaussian, Inc. access to this program.  By using this program,
 the user acknowledges that Gaussian, Inc. is engaged in the
 business of creating and licensing software in the field of
 computational chemistry and represents and warrants to the
 licensee that it is not a competitor of Gaussian, Inc. and that
 it will not use this program in any manner prohibited above.
 ---------------------------------------------------------------
  

 Cite this work as:
 Gaussian 16, Revision B.01,
 M. J. Frisch, G. W. Trucks, H. B. Schlegel, G. E. Scuseria, 
 M. A. Robb, J. R. Cheeseman, G. Scalmani, V. Barone, 
 G. A. Petersson, H. Nakatsuji, X. Li, M. Caricato, A. V. Marenich, 
 J. Bloino, B. G. Janesko, R. Gomperts, B. Mennucci, H. P. Hratchian, 
 J. V. Ortiz, A. F. Izmaylov, J. L. Sonnenberg, D. Williams-Young, 
 F. Ding, F. Lipparini, F. Egidi, J. Goings, B. Peng, A. Petrone, 
 T. Henderson, D. Ranasinghe, V. G. Zakrzewski, J. Gao, N. Rega, 
 G. Zheng, W. Liang, M. Hada, M. Ehara, K. Toyota, R. Fukuda, 
 J. Hasegawa, M. Ishida, T. Nakajima, Y. Honda, O. Kitao, H. Nakai, 
 T. Vreven, K. Throssell, J. A. Montgomery, Jr., J. E. Peralta, 
 F. Ogliaro, M. J. Bearpark, J. J. Heyd, E. N. Brothers, K. N. Kudin, 
 V. N. Staroverov, T. A. Keith, R. Kobayashi, J. Normand, 
 K. Raghavachari, A. P. Rendell, J. C. Burant, S. S. Iyengar, 
 J. Tomasi, M. Cossi, J. M. Millam, M. Klene, C. Adamo, R. Cammi, 
 J. W. Ochterski, R. L. Martin, K. Morokuma, O. Farkas, 
 J. B. Foresman, and D. J. Fox, Gaussian, Inc., Wallingford CT, 2016.
 
 ******************************************
 Gaussian 16:  EM64L-G16RevB.01 20-Dec-2017
                10-Nov-2023 
 ******************************************
 %nproc=4
 Will use up to    4 processors via shared memory.
 %Mem=2Gb
 ---------------------------------
 # TD=(NStates=1) B3LYP/6-31G(d,p)
 ---------------------------------
 1/38=1,172=1/1;
 2/12=2,17=6,18=5,40=1/2;
 3/5=1,6=6,7=101,11=9,25=1,30=1,74=-5/1,2,3,8;
 4//1;
 5/5=2,38=5/2;
 8/6=1,10=2,108=1/1;
 9/41=1,42=1,70=2/14;
 6/7=2,8=2,9=2,10=2/1;
 99/5=1,9=1/99;
 -------
 EMISPCT
 -------
 Symbolic Z-matrix:
 Charge =  0 Multiplicity = 1
 6                     0.34886   1.44808   0.03444 
 6                     1.3832    0.35491   0.03474 
 6                     0.99677  -1.03615  -0.03446 
 6                    -0.40098  -1.36917  -0.00674 
 6                    -1.30831  -0.37852   0.04478 
 6                    -1.0356    0.98119  -0.01167 
 1                     0.44387   2.48437  -0.08636 
 1                    -1.7468    1.7275   -0.45261 
 1                    -2.31747  -0.77822  -0.16376 
 1                    -0.45346  -2.43696   0.26391 
 1                     1.7451   -1.8517   -0.38089 
 1                     2.48147   0.84572  -0.01523 
 
                          Input orientation:                          
 ---------------------------------------------------------------------
 Center     Atomic      Atomic             Coordinates (Angstroms)
 Number     Number       Type             X           Y           Z
 ---------------------------------------------------------------------
      1          6           0        0.348858    1.448085    0.034435
      2          6           0        1.383196    0.354912    0.034744
      3          6           0        0.996770   -1.036152   -0.034459
      4          6           0       -0.400975   -1.369175   -0.006736
      5          6           0       -1.308315   -0.378523    0.044780
      6          6           0       -1.035604    0.981187   -0.011672
      7          1           0        0.443873    2.484368   -0.086365
      8          1           0       -1.746802    1.727501   -0.452606
      9          1           0       -2.317473   -0.778223   -0.163759
     10          1           0       -0.453460   -2.436956    0.263905
     11          1           0        1.745099   -1.851695   -0.380891
     12          1           0        2.481471    0.845722   -0.015231
 ---------------------------------------------------------------------
                    Distance matrix (angstroms):
                    1          2          3          4          5
     1  C    0.000000
     2  C    1.504952   0.000000
     3  C    2.568262   1.445398   0.000000
     4  C    2.915630   2.481424   1.437137   0.000000
     5  C    2.466338   2.789670   2.398368   1.344362   0.000000
     6  C    1.461799   2.498993   2.863690   2.434538   1.387936
     7  H    1.047618   2.330574   3.564050   3.945871   3.359093
     8  H    2.169580   3.452303   3.916608   3.405797   2.207940
     9  H    3.479231   3.875351   3.326778   2.011676   1.105282
    10  H    3.973652   3.349679   2.038244   1.102795   2.239630
    11  H    3.607011   2.274389   1.159794   2.231245   3.416836
    12  H    2.216606   1.203993   2.397114   3.635153   3.983070
                    6          7          8          9         10
     6  C    0.000000
     7  H    2.110447   0.000000
     8  H    1.121254   2.346495   0.000000
     9  H    2.182164   4.274988   2.586069   0.000000
    10  H    3.478295   5.014711   4.419143   2.531568   0.000000
    11  H    3.986709   4.536670   5.000916   4.207609   2.364731
    12  H    3.519684   2.615726   4.341327   5.068443   4.412223
                   11         12
    11  H    0.000000
    12  H    2.819931   0.000000
 Stoichiometry    C6H6
 Framework group  C1[X(C6H6)]
 Deg. of freedom    30
 Full point group                 C1      NOp   1
 Largest Abelian subgroup         C1      NOp   1
 Largest concise Abelian subgroup C1      NOp   1
                         Standard orientation:                         
 ---------------------------------------------------------------------
 Center     Atomic      Atomic             Coordinates (Angstroms)
 Number     Number       Type             X           Y           Z
 ---------------------------------------------------------------------
      1          6           0        1.427708    0.423237   -0.053086
      2          6           0        0.281775    1.398743   -0.042861
      3          6           0       -1.086630    0.939574    0.033346
      4          6           0       -1.346000   -0.473625    0.002396
      5          6           0       -0.309434   -1.327514   -0.058552
      6          6           0        1.034415   -0.983981   -0.009344
      7          1           0        2.458313    0.572118    0.061767
      8          1           0        1.819778   -1.656521    0.424368
      9          1           0       -0.654303   -2.356978    0.148618
     10          1           0       -2.411231   -0.581174   -0.261943
     11          1           0       -1.938136    1.642855    0.387541
     12          1           0        0.714569    2.521096    0.008257
 ---------------------------------------------------------------------
 Rotational constants (GHZ):           5.5926009           5.2718633           2.7291788
 Standard basis: 6-31G(d,p) (6D, 7F)
 There are   120 symmetry adapted cartesian basis functions of A   symmetry.
 There are   120 symmetry adapted basis functions of A   symmetry.
   120 basis functions,   210 primitive gaussians,   120 cartesian basis functions
    21 alpha electrons       21 beta electrons
       nuclear repulsion energy       198.7143296946 Hartrees.
 NAtoms=   12 NActive=   12 NUniq=   12 SFac= 1.00D+00 NAtFMM=   60 NAOKFM=F Big=F
 Integral buffers will be    131072 words long.
 Regular integral format.
 Two-electron integral symmetry is turned on.
 One-electron integrals computed using PRISM.
 NBasis=   120 RedAO= T EigKep=  1.02D-03  NBF=   120
 NBsUse=   120 1.00D-06 EigRej= -1.00D+00 NBFU=   120
 ExpMin= 1.61D-01 ExpMax= 3.05D+03 ExpMxC= 4.57D+02 IAcc=3 IRadAn=         5 AccDes= 0.00D+00
 Harris functional with IExCor=  402 and IRadAn=       5 diagonalized for initial guess.
 HarFok:  IExCor=  402 AccDes= 0.00D+00 IRadAn=         5 IDoV= 1 UseB2=F ITyADJ=14
 ICtDFT=  3500011 ScaDFX=  1.000000  1.000000  1.000000  1.000000
 FoFCou: FMM=F IPFlag=           0 FMFlag=      100000 FMFlg1=           0
         NFxFlg=           0 DoJE=T BraDBF=F KetDBF=T FulRan=T
         wScrn=  0.000000 ICntrl=       500 IOpCl=  0 I1Cent=   200000004 NGrid=           0
         NMat0=    1 NMatS0=      1 NMatT0=    0 NMatD0=    1 NMtDS0=    0 NMtDT0=    0
 Petite list used in FoFCou.
 Keep R1 ints in memory in canonical form, NReq=30147728.
 Requested convergence on RMS density matrix=1.00D-08 within 128 cycles.
 Requested convergence on MAX density matrix=1.00D-06.
 Requested convergence on             energy=1.00D-06.
 No special actions if energy rises.
 Integral accuracy reduced to 1.0D-05 until final iterations.
 Initial convergence to 1.0D-05 achieved.  Increase integral accuracy.
 SCF Done:  E(RB3LYP) =  -232.193223074     A.U. after   13 cycles
            NFock= 13  Conv=0.83D-08     -V/T= 2.0126
 DoSCS=F DFT=T ScalE2(SS,OS)=  1.000000  1.000000
 ExpMin= 1.61D-01 ExpMax= 3.05D+03 ExpMxC= 4.57D+02 IAcc=3 IRadAn=         5 AccDes= 0.00D+00
 HarFok:  IExCor=  205 AccDes= 0.00D+00 IRadAn=         5 IDoV=-2 UseB2=F ITyADJ=14
 ICtDFT= 12500011 ScaDFX=  1.000000  1.000000  1.000000  1.000000
 Range of M.O.s used for correlation:     7   120
 NBasis=   120 NAE=    21 NBE=    21 NFC=     6 NFV=     0
 NROrb=    114 NOA=    15 NOB=    15 NVA=    99 NVB=    99
 Keep R1, R2, and R3 ints in memory in canonical form, NReq=84032236.
 Orbital symmetries:
       Occupied  (A) (A) (A) (A) (A) (A) (A) (A) (A) (A) (A) (A)
                 (A) (A) (A) (A) (A) (A) (A) (A) (A)
       Virtual   (A) (A) (A) (A) (A) (A) (A) (A) (A) (A) (A) (A)
                 (A) (A) (A) (A) (A) (A) (A) (A) (A) (A) (A) (A)
                 (A) (A) (A) (A) (A) (A) (A) (A) (A) (A) (A) (A)
                 (A) (A) (A) (A) (A) (A) (A) (A) (A) (A) (A) (A)
                 (A) (A) (A) (A) (A) (A) (A) (A) (A) (A) (A) (A)
                 (A) (A) (A) (A) (A) (A) (A) (A) (A) (A) (A) (A)
                 (A) (A) (A) (A) (A) (A) (A) (A) (A) (A) (A) (A)
                 (A) (A) (A) (A) (A) (A) (A) (A) (A) (A) (A) (A)
                 (A) (A) (A)
     4 initial guesses have been made.
 Convergence on wavefunction:    0.001000000000000
 Iteration     1 Dimension     4 NMult     0 NNew      4
 CISAX will form     4 AO SS matrices at one time.
 New state      1 was old state      2
 Iteration     2 Dimension     6 NMult     4 NNew      2
 Iteration     3 Dimension     8 NMult     6 NNew      2
 Iteration     4 Dimension    10 NMult     8 NNew      2
 Iteration     5 Dimension    12 NMult    10 NNew      2
 ***********************************************************************
 Excited states from <AA,BB:AA,BB> singles matrix:
 ***********************************************************************
 
 Ground to excited state transition densities written to RWF  633
 Ground to excited state transition electric dipole moments (Au):
       state          X           Y           Z        Dip. S.      Osc.
         1        -0.0806      0.0700     -0.0055      0.0114      0.0014
 Ground to excited state transition velocity dipole moments (Au):
       state          X           Y           Z        Dip. S.      Osc.
         1         0.0149     -0.0133     -0.0010      0.0004      0.0015
 Ground to excited state transition magnetic dipole moments (Au):
       state          X           Y           Z
         1        -0.0207      0.0184     -0.0396
 Ground to excited state transition velocity quadrupole moments (Au):
       state          XX          YY          ZZ          XY          XZ          YZ
         1         0.0112     -0.0195      0.0045      0.0083     -0.0130     -0.0281
 <0|del|b> * <b|rxdel|0> + <0|del|b> * <b|delr+rdel|0>
 Rotatory Strengths (R) in cgs (10**-40 erg-esu-cm/Gauss)
       state          XX          YY          ZZ    R(velocity)    E-M Angle
         1        -0.7458     -1.3147      0.0771     -0.6612      122.07
 1/2[<0|r|b>*<b|rxdel|0> + (<0|rxdel|b>*<b|r|0>)*]
 Rotatory Strengths (R) in cgs (10**-40 erg-esu-cm/Gauss)
       state          XX          YY          ZZ     R(length)
         1        -1.1769     -0.9113     -0.1547     -0.7476
  1/2[<0|del|b>*<b|r|0> + (<0|r|b>*<b|del|0>)*] (Au)
       state          X           Y           Z        Dip. S.   Osc.(frdel)
         1        -0.0012     -0.0009      0.0000      0.0021      0.0014

 Excitation energies and oscillator strengths:
 
 Excited State   1:      Singlet-A      4.9897 eV  248.48 nm  f=0.0014  <S**2>=0.000
      20 -> 22         0.52866
      21 -> 23         0.45466
 This state for optimization and/or second-order correction.
 Total Energy, E(TD-HF/TD-DFT) =  -232.009855572    
 Copying the excited state density for this state as the 1-particle RhoCI density.
 SavETr:  write IOETrn=   770 NScale= 10 NData=  16 NLR=1 NState=    1 LETran=      28.

 **********************************************************************

            Population analysis using the SCF Density.

 **********************************************************************

 Orbital symmetries:
       Occupied  (A) (A) (A) (A) (A) (A) (A) (A) (A) (A) (A) (A)
                 (A) (A) (A) (A) (A) (A) (A) (A) (A)
       Virtual   (A) (A) (A) (A) (A) (A) (A) (A) (A) (A) (A) (A)
                 (A) (A) (A) (A) (A) (A) (A) (A) (A) (A) (A) (A)
                 (A) (A) (A) (A) (A) (A) (A) (A) (A) (A) (A) (A)
                 (A) (A) (A) (A) (A) (A) (A) (A) (A) (A) (A) (A)
                 (A) (A) (A) (A) (A) (A) (A) (A) (A) (A) (A) (A)
                 (A) (A) (A) (A) (A) (A) (A) (A) (A) (A) (A) (A)
                 (A) (A) (A) (A) (A) (A) (A) (A) (A) (A) (A) (A)
                 (A) (A) (A) (A) (A) (A) (A) (A) (A) (A) (A) (A)
                 (A) (A) (A)
 The electronic state is 1-A.
 Alpha  occ. eigenvalues --  -10.21911 -10.20738 -10.20458 -10.19761 -10.19213
 Alpha  occ. eigenvalues --  -10.18784  -0.83701  -0.73675  -0.72840  -0.59693
 Alpha  occ. eigenvalues --   -0.59062  -0.50202  -0.46640  -0.43712  -0.40717
 Alpha  occ. eigenvalues --   -0.39559  -0.37410  -0.33107  -0.31405  -0.24499
 Alpha  occ. eigenvalues --   -0.24110
 Alpha virt. eigenvalues --   -0.02007  -0.00714   0.07995   0.11348   0.12385
 Alpha virt. eigenvalues --    0.14917   0.15169   0.16971   0.18645   0.26307
 Alpha virt. eigenvalues --    0.27285   0.30224   0.32171   0.45727   0.49037
 Alpha virt. eigenvalues --    0.51250   0.52917   0.55006   0.58125   0.59457
 Alpha virt. eigenvalues --    0.59666   0.61354   0.61697   0.63403   0.65011
 Alpha virt. eigenvalues --    0.65607   0.66337   0.72719   0.76496   0.78771
 Alpha virt. eigenvalues --    0.81547   0.82366   0.84870   0.89063   0.91104
 Alpha virt. eigenvalues --    0.92424   0.96812   1.00815   1.03149   1.05275
 Alpha virt. eigenvalues --    1.09325   1.11484   1.17250   1.25246   1.27070
 Alpha virt. eigenvalues --    1.37552   1.41182   1.45004   1.52654   1.58359
 Alpha virt. eigenvalues --    1.68828   1.71087   1.73043   1.76354   1.83251
 Alpha virt. eigenvalues --    1.85655   1.91885   1.92514   1.97367   2.00306
 Alpha virt. eigenvalues --    2.02567   2.05702   2.07842   2.17575   2.21970
 Alpha virt. eigenvalues --    2.25370   2.27238   2.31699   2.34254   2.36580
 Alpha virt. eigenvalues --    2.38655   2.42370   2.42991   2.46759   2.51045
 Alpha virt. eigenvalues --    2.51604   2.53062   2.56288   2.57312   2.65581
 Alpha virt. eigenvalues --    2.67335   2.73355   2.78962   2.84251   2.89635
 Alpha virt. eigenvalues --    3.08899   3.11965   3.17851   3.21990   3.34517
 Alpha virt. eigenvalues --    3.43858   3.51123   3.74409   4.08987   4.17244
 Alpha virt. eigenvalues --    4.19366   4.42619   4.43931   4.75888
          Condensed to atoms (all electrons):
               1          2          3          4          5          6
     1  C    4.888966   0.498137  -0.029166  -0.031590  -0.034339   0.512382
     2  C    0.498137   4.875093   0.535905  -0.034736  -0.036957  -0.034780
     3  C   -0.029166   0.535905   4.899045   0.495991  -0.040168  -0.042695
     4  C   -0.031590  -0.034736   0.495991   4.834424   0.558947  -0.031061
     5  C   -0.034339  -0.036957  -0.040168   0.558947   4.792381   0.537634
     6  C    0.512382  -0.034780  -0.042695  -0.031061   0.537634   4.862368
     7  H    0.372578  -0.032913   0.003039   0.000308   0.005004  -0.041745
     8  H   -0.043755   0.004410   0.000188   0.004025  -0.036154   0.365740
     9  H    0.004630   0.000488   0.006343  -0.050931   0.365062  -0.040643
    10  H    0.000285   0.004814  -0.050418   0.367505  -0.032834   0.004315
    11  H    0.002538  -0.034647   0.359157  -0.036379   0.004683   0.000406
    12  H   -0.045538   0.349852  -0.030734   0.003406   0.000177   0.004186
               7          8          9         10         11         12
     1  C    0.372578  -0.043755   0.004630   0.000285   0.002538  -0.045538
     2  C   -0.032913   0.004410   0.000488   0.004814  -0.034647   0.349852
     3  C    0.003039   0.000188   0.006343  -0.050418   0.359157  -0.030734
     4  C    0.000308   0.004025  -0.050931   0.367505  -0.036379   0.003406
     5  C    0.005004  -0.036154   0.365062  -0.032834   0.004683   0.000177
     6  C   -0.041745   0.365740  -0.040643   0.004315   0.000406   0.004186
     7  H    0.603343  -0.005473  -0.000204   0.000010  -0.000074  -0.003517
     8  H   -0.005473   0.624626  -0.006070  -0.000108   0.000013  -0.000178
     9  H   -0.000204  -0.006070   0.644136  -0.006832  -0.000274   0.000011
    10  H    0.000010  -0.000108  -0.006832   0.617905  -0.005365  -0.000141
    11  H   -0.000074   0.000013  -0.000274  -0.005365   0.618322  -0.003240
    12  H   -0.003517  -0.000178   0.000011  -0.000141  -0.003240   0.642363
 Mulliken charges:
               1
     1  C   -0.095130
     2  C   -0.094669
     3  C   -0.106488
     4  C   -0.079909
     5  C   -0.083437
     6  C   -0.096108
     7  H    0.099644
     8  H    0.092735
     9  H    0.084284
    10  H    0.100866
    11  H    0.094858
    12  H    0.083352
 Sum of Mulliken charges =  -0.00000
 Mulliken charges with hydrogens summed into heavy atoms:
               1
     1  C    0.004515
     2  C   -0.011316
     3  C   -0.011630
     4  C    0.020957
     5  C    0.000847
     6  C   -0.003373
 Electronic spatial extent (au):  <R**2>=            475.8055
 Charge=             -0.0000 electrons
 Dipole moment (field-independent basis, Debye):
    X=              0.0632    Y=              0.0487    Z=              0.4613  Tot=              0.4681
 Quadrupole moment (field-independent basis, Debye-Ang):
   XX=            -30.6716   YY=            -33.2918   ZZ=            -38.7276
   XY=              0.0732   XZ=              0.6546   YZ=             -0.1747
 Traceless Quadrupole moment (field-independent basis, Debye-Ang):
   XX=              3.5587   YY=              0.9386   ZZ=             -4.4973
   XY=              0.0732   XZ=              0.6546   YZ=             -0.1747
 Octapole moment (field-independent basis, Debye-Ang**2):
  XXX=              0.8805  YYY=              0.1578  ZZZ=              0.6429  XYY=              0.5246
  XXY=              0.8523  XXZ=              1.5726  XZZ=             -0.2309  YZZ=             -0.7923
  YYZ=              2.6045  XYZ=             -1.8922
 Hexadecapole moment (field-independent basis, Debye-Ang**3):
 XXXX=           -282.1095 YYYY=           -288.0733 ZZZZ=            -43.0121 XXXY=             -2.0054
 XXXZ=              5.0088 YYYX=              3.8113 YYYZ=             -1.8274 ZZZX=              0.8281
 ZZZY=             -0.1846 XXYY=            -96.6218 XXZZ=            -63.4338 YYZZ=            -62.0000
 XXYZ=              0.8388 YYXZ=             -0.0265 ZZXY=             -0.6361
 N-N= 1.987143296946D+02 E-N=-9.341542592194D+02  KE= 2.293006713493D+02
 1\1\GINC-DESKTOP-PRN5QE3\SP\RB3LYP TD-FC\6-31G(d,p)\C6H6\SHOHEI\10-Nov
 -2023\0\\# TD=(NStates=1) B3LYP/6-31G(d,p)\\EMISPCT\\0,1\C,0,0.3488584
 377,1.4480845098,0.0344353761\C,0,1.3831959148,0.3549120476,0.03474435
 11\C,0,0.9967699564,-1.0361524534,-0.034458567\C,0,-0.4009752463,-1.36
 91749009,-0.0067357314\C,0,-1.3083146183,-0.3785226879,0.044779741\C,0
 ,-1.0356040472,0.9811866698,-0.0116723275\H,0,0.443873325,2.4843677369
 ,-0.0863646868\H,0,-1.7468018811,1.7275010519,-0.4526061469\H,0,-2.317
 4726211,-0.7782231281,-0.1637585023\H,0,-0.4534596938,-2.4369561503,0.
 2639051598\H,0,1.7450987794,-1.8516954218,-0.3808911736\H,0,2.48147070
 82,0.8457218828,-0.015230828\\Version=EM64L-G16RevB.01\State=1-A\HF=-2
 32.1932231\RMSD=8.280e-09\PG=C01 [X(C6H6)]\\@


 THOSE WITH THE GOLD MAKE THE RULES.

             -- PETER'S GOLDEN RULE
 Job cpu time:       0 days  0 hours  3 minutes  6.6 seconds.
 Elapsed time:       0 days  0 hours  0 minutes 47.2 seconds.
 File lengths (MBytes):  RWF=    116 Int=      0 D2E=      0 Chk=      3 Scr=      1
 Normal termination of Gaussian 16 at Fri Nov 10 19:50:24 2023.
