 Entering Gaussian System, Link 0=g16
 Input=Geometry-424-.com
 Output=Geometry-424-.log
 Initial command:
 /home/shohei/gaussian/g16/l1.exe "/home/shohei/gaussian/scratch/Gau-27438.inp" -scrdir="/home/shohei/gaussian/scratch/"
 Entering Link 1 = /home/shohei/gaussian/g16/l1.exe PID=     27440.
  
 Copyright (c) 1988-2017, Gaussian, Inc.  All Rights Reserved.
  
 This is part of the Gaussian(R) 16 program.  It is based on
 the Gaussian(R) 09 system (copyright 2009, Gaussian, Inc.),
 the Gaussian(R) 03 system (copyright 2003, Gaussian, Inc.),
 the Gaussian(R) 98 system (copyright 1998, Gaussian, Inc.),
 the Gaussian(R) 94 system (copyright 1995, Gaussian, Inc.),
 the Gaussian 92(TM) system (copyright 1992, Gaussian, Inc.),
 the Gaussian 90(TM) system (copyright 1990, Gaussian, Inc.),
 the Gaussian 88(TM) system (copyright 1988, Gaussian, Inc.),
 the Gaussian 86(TM) system (copyright 1986, Carnegie Mellon
 University), and the Gaussian 82(TM) system (copyright 1983,
 Carnegie Mellon University). Gaussian is a federally registered
 trademark of Gaussian, Inc.
  
 This software contains proprietary and confidential information,
 including trade secrets, belonging to Gaussian, Inc.
  
 This software is provided under written license and may be
 used, copied, transmitted, or stored only in accord with that
 written license.
  
 The following legend is applicable only to US Government
 contracts under FAR:
  
                    RESTRICTED RIGHTS LEGEND
  
 Use, reproduction and disclosure by the US Government is
 subject to restrictions as set forth in subparagraphs (a)
 and (c) of the Commercial Computer Software - Restricted
 Rights clause in FAR 52.227-19.
  
 Gaussian, Inc.
 340 Quinnipiac St., Bldg. 40, Wallingford CT 06492
  
  
 ---------------------------------------------------------------
 Warning -- This program may not be used in any manner that
 competes with the business of Gaussian, Inc. or will provide
 assistance to any competitor of Gaussian, Inc.  The licensee
 of this program is prohibited from giving any competitor of
 Gaussian, Inc. access to this program.  By using this program,
 the user acknowledges that Gaussian, Inc. is engaged in the
 business of creating and licensing software in the field of
 computational chemistry and represents and warrants to the
 licensee that it is not a competitor of Gaussian, Inc. and that
 it will not use this program in any manner prohibited above.
 ---------------------------------------------------------------
  

 Cite this work as:
 Gaussian 16, Revision B.01,
 M. J. Frisch, G. W. Trucks, H. B. Schlegel, G. E. Scuseria, 
 M. A. Robb, J. R. Cheeseman, G. Scalmani, V. Barone, 
 G. A. Petersson, H. Nakatsuji, X. Li, M. Caricato, A. V. Marenich, 
 J. Bloino, B. G. Janesko, R. Gomperts, B. Mennucci, H. P. Hratchian, 
 J. V. Ortiz, A. F. Izmaylov, J. L. Sonnenberg, D. Williams-Young, 
 F. Ding, F. Lipparini, F. Egidi, J. Goings, B. Peng, A. Petrone, 
 T. Henderson, D. Ranasinghe, V. G. Zakrzewski, J. Gao, N. Rega, 
 G. Zheng, W. Liang, M. Hada, M. Ehara, K. Toyota, R. Fukuda, 
 J. Hasegawa, M. Ishida, T. Nakajima, Y. Honda, O. Kitao, H. Nakai, 
 T. Vreven, K. Throssell, J. A. Montgomery, Jr., J. E. Peralta, 
 F. Ogliaro, M. J. Bearpark, J. J. Heyd, E. N. Brothers, K. N. Kudin, 
 V. N. Staroverov, T. A. Keith, R. Kobayashi, J. Normand, 
 K. Raghavachari, A. P. Rendell, J. C. Burant, S. S. Iyengar, 
 J. Tomasi, M. Cossi, J. M. Millam, M. Klene, C. Adamo, R. Cammi, 
 J. W. Ochterski, R. L. Martin, K. Morokuma, O. Farkas, 
 J. B. Foresman, and D. J. Fox, Gaussian, Inc., Wallingford CT, 2016.
 
 ******************************************
 Gaussian 16:  EM64L-G16RevB.01 20-Dec-2017
                10-Nov-2023 
 ******************************************
 %nproc=4
 Will use up to    4 processors via shared memory.
 %Mem=2Gb
 ---------------------------------
 # TD=(NStates=1) B3LYP/6-31G(d,p)
 ---------------------------------
 1/38=1,172=1/1;
 2/12=2,17=6,18=5,40=1/2;
 3/5=1,6=6,7=101,11=9,25=1,30=1,74=-5/1,2,3,8;
 4//1;
 5/5=2,38=5/2;
 8/6=1,10=2,108=1/1;
 9/41=1,42=1,70=2/14;
 6/7=2,8=2,9=2,10=2/1;
 99/5=1,9=1/99;
 -------
 EMISPCT
 -------
 Symbolic Z-matrix:
 Charge =  0 Multiplicity = 1
 6                     0.305     1.36657   0.07418 
 6                     1.39869   0.33377  -0.04898 
 6                     1.01194  -0.96751  -0.03459 
 6                    -0.3566   -1.35279   0.02885 
 6                    -1.39086  -0.42992   0.01523 
 6                    -0.9801    1.00916  -0.07744 
 1                     0.62482   2.44593   0.31531 
 1                    -1.86533   1.89676   0.08962 
 1                    -2.44148  -0.66031  -0.04034 
 1                    -0.65909  -2.31075   0.0219 
 1                     1.93722  -1.59645   0.40765 
 1                     2.50788   0.69074  -0.20987 
 
                          Input orientation:                          
 ---------------------------------------------------------------------
 Center     Atomic      Atomic             Coordinates (Angstroms)
 Number     Number       Type             X           Y           Z
 ---------------------------------------------------------------------
      1          6           0        0.305001    1.366567    0.074179
      2          6           0        1.398689    0.333771   -0.048982
      3          6           0        1.011940   -0.967506   -0.034587
      4          6           0       -0.356602   -1.352786    0.028847
      5          6           0       -1.390859   -0.429925    0.015232
      6          6           0       -0.980101    1.009157   -0.077442
      7          1           0        0.624824    2.445927    0.315306
      8          1           0       -1.865325    1.896760    0.089617
      9          1           0       -2.441484   -0.660314   -0.040335
     10          1           0       -0.659094   -2.310746    0.021900
     11          1           0        1.937220   -1.596450    0.407647
     12          1           0        2.507881    0.690737   -0.209868
 ---------------------------------------------------------------------
                    Distance matrix (angstroms):
                    1          2          3          4          5
     1  C    0.000000
     2  C    1.509302   0.000000
     3  C    2.441207   1.357609   0.000000
     4  C    2.799045   2.435483   1.423156   0.000000
     5  C    2.471193   2.892910   2.462705   1.386198   0.000000
     6  C    1.342467   2.472974   2.806646   2.445163   1.499422
     7  H    1.151281   2.278767   3.453087   3.933888   3.524705
     8  H    2.234202   3.621593   4.061785   3.583223   2.375734
     9  H    3.415339   3.966763   3.467065   2.197962   1.077024
    10  H    3.801952   3.351561   2.144723   1.004608   2.018170
    11  H    3.399237   2.055305   1.203031   2.337623   3.548362
    12  H    2.321662   1.176273   2.240164   3.526789   4.062847
                    6          7          8          9         10
     6  C    0.000000
     7  H    2.189599   0.000000
     8  H    1.264661   2.559954   0.000000
     9  H    2.219043   4.379208   2.624400   0.000000
    10  H    3.336865   4.935633   4.377520   2.429962   0.000000
    11  H    3.941480   4.251085   5.173298   4.500010   2.720269
    12  H    3.504990   2.627243   4.546330   5.133254   4.369479
                   11         12
    11  H    0.000000
    12  H    2.436843   0.000000
 Stoichiometry    C6H6
 Framework group  C1[X(C6H6)]
 Deg. of freedom    30
 Full point group                 C1      NOp   1
 Largest Abelian subgroup         C1      NOp   1
 Largest concise Abelian subgroup C1      NOp   1
                         Standard orientation:                         
 ---------------------------------------------------------------------
 Center     Atomic      Atomic             Coordinates (Angstroms)
 Number     Number       Type             X           Y           Z
 ---------------------------------------------------------------------
      1          6           0        0.178983    1.383488    0.063261
      2          6           0        1.361976    0.454503   -0.061259
      3          6           0        1.095558   -0.876591   -0.043618
      4          6           0       -0.231970   -1.384951    0.024302
      5          6           0       -1.346115   -0.560285    0.012062
      6          6           0       -1.068564    0.910081   -0.084154
      7          1           0        0.399670    2.487975    0.301697
      8          1           0       -2.030605    1.713572    0.083918
      9          1           0       -2.371493   -0.885634   -0.040170
     10          1           0       -0.445850   -2.366517    0.019794
     11          1           0        2.075510   -1.417686    0.397057
     12          1           0        2.433560    0.910830   -0.225854
 ---------------------------------------------------------------------
 Rotational constants (GHZ):           5.5905744           5.3676990           2.7538358
 Standard basis: 6-31G(d,p) (6D, 7F)
 There are   120 symmetry adapted cartesian basis functions of A   symmetry.
 There are   120 symmetry adapted basis functions of A   symmetry.
   120 basis functions,   210 primitive gaussians,   120 cartesian basis functions
    21 alpha electrons       21 beta electrons
       nuclear repulsion energy       199.4026576456 Hartrees.
 NAtoms=   12 NActive=   12 NUniq=   12 SFac= 1.00D+00 NAtFMM=   60 NAOKFM=F Big=F
 Integral buffers will be    131072 words long.
 Regular integral format.
 Two-electron integral symmetry is turned on.
 One-electron integrals computed using PRISM.
 NBasis=   120 RedAO= T EigKep=  9.10D-04  NBF=   120
 NBsUse=   120 1.00D-06 EigRej= -1.00D+00 NBFU=   120
 ExpMin= 1.61D-01 ExpMax= 3.05D+03 ExpMxC= 4.57D+02 IAcc=3 IRadAn=         5 AccDes= 0.00D+00
 Harris functional with IExCor=  402 and IRadAn=       5 diagonalized for initial guess.
 HarFok:  IExCor=  402 AccDes= 0.00D+00 IRadAn=         5 IDoV= 1 UseB2=F ITyADJ=14
 ICtDFT=  3500011 ScaDFX=  1.000000  1.000000  1.000000  1.000000
 FoFCou: FMM=F IPFlag=           0 FMFlag=      100000 FMFlg1=           0
         NFxFlg=           0 DoJE=T BraDBF=F KetDBF=T FulRan=T
         wScrn=  0.000000 ICntrl=       500 IOpCl=  0 I1Cent=   200000004 NGrid=           0
         NMat0=    1 NMatS0=      1 NMatT0=    0 NMatD0=    1 NMtDS0=    0 NMtDT0=    0
 Petite list used in FoFCou.
 Keep R1 ints in memory in canonical form, NReq=30147728.
 Requested convergence on RMS density matrix=1.00D-08 within 128 cycles.
 Requested convergence on MAX density matrix=1.00D-06.
 Requested convergence on             energy=1.00D-06.
 No special actions if energy rises.
 Integral accuracy reduced to 1.0D-05 until final iterations.
 Initial convergence to 1.0D-05 achieved.  Increase integral accuracy.
 SCF Done:  E(RB3LYP) =  -232.185805866     A.U. after   13 cycles
            NFock= 13  Conv=0.67D-08     -V/T= 2.0123
 DoSCS=F DFT=T ScalE2(SS,OS)=  1.000000  1.000000
 ExpMin= 1.61D-01 ExpMax= 3.05D+03 ExpMxC= 4.57D+02 IAcc=3 IRadAn=         5 AccDes= 0.00D+00
 HarFok:  IExCor=  205 AccDes= 0.00D+00 IRadAn=         5 IDoV=-2 UseB2=F ITyADJ=14
 ICtDFT= 12500011 ScaDFX=  1.000000  1.000000  1.000000  1.000000
 Range of M.O.s used for correlation:     7   120
 NBasis=   120 NAE=    21 NBE=    21 NFC=     6 NFV=     0
 NROrb=    114 NOA=    15 NOB=    15 NVA=    99 NVB=    99
 Keep R1, R2, and R3 ints in memory in canonical form, NReq=84032236.
 Orbital symmetries:
       Occupied  (A) (A) (A) (A) (A) (A) (A) (A) (A) (A) (A) (A)
                 (A) (A) (A) (A) (A) (A) (A) (A) (A)
       Virtual   (A) (A) (A) (A) (A) (A) (A) (A) (A) (A) (A) (A)
                 (A) (A) (A) (A) (A) (A) (A) (A) (A) (A) (A) (A)
                 (A) (A) (A) (A) (A) (A) (A) (A) (A) (A) (A) (A)
                 (A) (A) (A) (A) (A) (A) (A) (A) (A) (A) (A) (A)
                 (A) (A) (A) (A) (A) (A) (A) (A) (A) (A) (A) (A)
                 (A) (A) (A) (A) (A) (A) (A) (A) (A) (A) (A) (A)
                 (A) (A) (A) (A) (A) (A) (A) (A) (A) (A) (A) (A)
                 (A) (A) (A) (A) (A) (A) (A) (A) (A) (A) (A) (A)
                 (A) (A) (A)
     4 initial guesses have been made.
 Convergence on wavefunction:    0.001000000000000
 Iteration     1 Dimension     4 NMult     0 NNew      4
 CISAX will form     4 AO SS matrices at one time.
 New state      1 was old state      2
 Iteration     2 Dimension     6 NMult     4 NNew      2
 Iteration     3 Dimension     8 NMult     6 NNew      2
 Iteration     4 Dimension    10 NMult     8 NNew      2
 Iteration     5 Dimension    12 NMult    10 NNew      2
 ***********************************************************************
 Excited states from <AA,BB:AA,BB> singles matrix:
 ***********************************************************************
 
 Ground to excited state transition densities written to RWF  633
 Ground to excited state transition electric dipole moments (Au):
       state          X           Y           Z        Dip. S.      Osc.
         1        -0.0822      0.0983     -0.0024      0.0164      0.0021
 Ground to excited state transition velocity dipole moments (Au):
       state          X           Y           Z        Dip. S.      Osc.
         1         0.0166     -0.0176     -0.0006      0.0006      0.0021
 Ground to excited state transition magnetic dipole moments (Au):
       state          X           Y           Z
         1        -0.0216      0.0382      0.0853
 Ground to excited state transition velocity quadrupole moments (Au):
       state          XX          YY          ZZ          XY          XZ          YZ
         1        -0.0388     -0.0094      0.0153      0.0292      0.0054     -0.0145
 <0|del|b> * <b|rxdel|0> + <0|del|b> * <b|delr+rdel|0>
 Rotatory Strengths (R) in cgs (10**-40 erg-esu-cm/Gauss)
       state          XX          YY          ZZ    R(velocity)    E-M Angle
         1        -1.1968     -1.1775     -1.6547     -1.3430      117.68
 1/2[<0|r|b>*<b|rxdel|0> + (<0|rxdel|b>*<b|r|0>)*]
 Rotatory Strengths (R) in cgs (10**-40 erg-esu-cm/Gauss)
       state          XX          YY          ZZ     R(length)
         1        -1.2555     -2.6558      0.1420     -1.2564
  1/2[<0|del|b>*<b|r|0> + (<0|r|b>*<b|del|0>)*] (Au)
       state          X           Y           Z        Dip. S.   Osc.(frdel)
         1        -0.0014     -0.0017      0.0000      0.0031      0.0021

 Excitation energies and oscillator strengths:
 
 Excited State   1:      Singlet-A      5.1614 eV  240.21 nm  f=0.0021  <S**2>=0.000
      20 -> 22         0.54374
      21 -> 23        -0.43426
 This state for optimization and/or second-order correction.
 Total Energy, E(TD-HF/TD-DFT) =  -231.996126867    
 Copying the excited state density for this state as the 1-particle RhoCI density.
 SavETr:  write IOETrn=   770 NScale= 10 NData=  16 NLR=1 NState=    1 LETran=      28.

 **********************************************************************

            Population analysis using the SCF Density.

 **********************************************************************

 Orbital symmetries:
       Occupied  (A) (A) (A) (A) (A) (A) (A) (A) (A) (A) (A) (A)
                 (A) (A) (A) (A) (A) (A) (A) (A) (A)
       Virtual   (A) (A) (A) (A) (A) (A) (A) (A) (A) (A) (A) (A)
                 (A) (A) (A) (A) (A) (A) (A) (A) (A) (A) (A) (A)
                 (A) (A) (A) (A) (A) (A) (A) (A) (A) (A) (A) (A)
                 (A) (A) (A) (A) (A) (A) (A) (A) (A) (A) (A) (A)
                 (A) (A) (A) (A) (A) (A) (A) (A) (A) (A) (A) (A)
                 (A) (A) (A) (A) (A) (A) (A) (A) (A) (A) (A) (A)
                 (A) (A) (A) (A) (A) (A) (A) (A) (A) (A) (A) (A)
                 (A) (A) (A) (A) (A) (A) (A) (A) (A) (A) (A) (A)
                 (A) (A) (A)
 The electronic state is 1-A.
 Alpha  occ. eigenvalues --  -10.20787 -10.20656 -10.20101 -10.20098 -10.20000
 Alpha  occ. eigenvalues --  -10.18783  -0.84044  -0.73945  -0.73550  -0.59982
 Alpha  occ. eigenvalues --   -0.57852  -0.50349  -0.45511  -0.43728  -0.41561
 Alpha  occ. eigenvalues --   -0.39375  -0.36672  -0.34207  -0.31389  -0.24764
 Alpha  occ. eigenvalues --   -0.24221
 Alpha virt. eigenvalues --   -0.01629  -0.00125   0.06658   0.09886   0.13544
 Alpha virt. eigenvalues --    0.14463   0.15837   0.16239   0.18294   0.25779
 Alpha virt. eigenvalues --    0.28404   0.30747   0.33202   0.46564   0.47249
 Alpha virt. eigenvalues --    0.52779   0.53571   0.54725   0.57503   0.58880
 Alpha virt. eigenvalues --    0.59694   0.60718   0.61097   0.64371   0.64775
 Alpha virt. eigenvalues --    0.66157   0.67256   0.73037   0.74886   0.77457
 Alpha virt. eigenvalues --    0.78584   0.82632   0.84805   0.91548   0.91949
 Alpha virt. eigenvalues --    0.92249   0.94851   1.00204   1.05317   1.08562
 Alpha virt. eigenvalues --    1.09384   1.12803   1.16323   1.28477   1.33685
 Alpha virt. eigenvalues --    1.35314   1.40969   1.43207   1.47593   1.59765
 Alpha virt. eigenvalues --    1.66609   1.69018   1.70221   1.78036   1.83525
 Alpha virt. eigenvalues --    1.88647   1.89803   1.93617   1.97715   2.01424
 Alpha virt. eigenvalues --    2.04872   2.08186   2.08991   2.16984   2.22045
 Alpha virt. eigenvalues --    2.24180   2.29403   2.31599   2.34782   2.36385
 Alpha virt. eigenvalues --    2.38502   2.41043   2.44913   2.46942   2.47648
 Alpha virt. eigenvalues --    2.49282   2.53160   2.54633   2.57116   2.66040
 Alpha virt. eigenvalues --    2.69993   2.71604   2.75845   2.85203   2.95788
 Alpha virt. eigenvalues --    3.01014   3.07750   3.14189   3.20407   3.27615
 Alpha virt. eigenvalues --    3.40075   3.51796   3.81158   4.11118   4.16334
 Alpha virt. eigenvalues --    4.17707   4.41159   4.42465   4.73679
          Condensed to atoms (all electrons):
               1          2          3          4          5          6
     1  C    4.825468   0.476840  -0.037146  -0.034601  -0.038602   0.586831
     2  C    0.476840   4.900224   0.540784  -0.035626  -0.038405  -0.025894
     3  C   -0.037146   0.540784   4.872633   0.494039  -0.021648  -0.049088
     4  C   -0.034601  -0.035626   0.494039   4.793936   0.570002  -0.028133
     5  C   -0.038602  -0.038405  -0.021648   0.570002   4.855442   0.468281
     6  C    0.586831  -0.025894  -0.049088  -0.028133   0.468281   4.864074
     7  H    0.359315  -0.039709   0.005160   0.000165   0.004428  -0.038823
     8  H   -0.036799   0.004051   0.000027   0.003558  -0.033952   0.342485
     9  H    0.004423   0.000069   0.004910  -0.039480   0.372184  -0.040861
    10  H    0.000542   0.005341  -0.044092   0.380564  -0.051097   0.006195
    11  H    0.004776  -0.046249   0.352781  -0.029407   0.002837   0.000505
    12  H   -0.033724   0.357138  -0.032712   0.003404   0.000441   0.003110
               7          8          9         10         11         12
     1  C    0.359315  -0.036799   0.004423   0.000542   0.004776  -0.033724
     2  C   -0.039709   0.004051   0.000069   0.005341  -0.046249   0.357138
     3  C    0.005160   0.000027   0.004910  -0.044092   0.352781  -0.032712
     4  C    0.000165   0.003558  -0.039480   0.380564  -0.029407   0.003404
     5  C    0.004428  -0.033952   0.372184  -0.051097   0.002837   0.000441
     6  C   -0.038823   0.342485  -0.040861   0.006195   0.000505   0.003110
     7  H    0.632481  -0.008122  -0.000134   0.000011  -0.000239  -0.003087
     8  H   -0.008122   0.668219  -0.003531  -0.000167   0.000010  -0.000100
     9  H   -0.000134  -0.003531   0.611470  -0.007252  -0.000095   0.000008
    10  H    0.000011  -0.000167  -0.007252   0.628075  -0.004048  -0.000147
    11  H   -0.000239   0.000010  -0.000095  -0.004048   0.640872  -0.007144
    12  H   -0.003087  -0.000100   0.000008  -0.000147  -0.007144   0.616909
 Mulliken charges:
               1
     1  C   -0.077322
     2  C   -0.098563
     3  C   -0.085647
     4  C   -0.078422
     5  C   -0.089910
     6  C   -0.088681
     7  H    0.088555
     8  H    0.064322
     9  H    0.098289
    10  H    0.086075
    11  H    0.085402
    12  H    0.095903
 Sum of Mulliken charges =  -0.00000
 Mulliken charges with hydrogens summed into heavy atoms:
               1
     1  C    0.011233
     2  C   -0.002660
     3  C   -0.000246
     4  C    0.007653
     5  C    0.008379
     6  C   -0.024359
 Electronic spatial extent (au):  <R**2>=            474.1011
 Charge=             -0.0000 electrons
 Dipole moment (field-independent basis, Debye):
    X=              0.0135    Y=              0.0162    Z=              0.3137  Tot=              0.3144
 Quadrupole moment (field-independent basis, Debye-Ang):
   XX=            -31.4196   YY=            -32.5732   ZZ=            -38.7798
   XY=              1.0633   XZ=              0.2945   YZ=              0.1041
 Traceless Quadrupole moment (field-independent basis, Debye-Ang):
   XX=              2.8380   YY=              1.6843   ZZ=             -4.5222
   XY=              1.0633   XZ=              0.2945   YZ=              0.1041
 Octapole moment (field-independent basis, Debye-Ang**2):
  XXX=             -0.0438  YYY=              0.0943  ZZZ=              0.3576  XYY=             -1.0050
  XXY=             -0.0210  XXZ=              0.6877  XZZ=              0.3787  YZZ=             -0.5186
  YYZ=              2.0411  XYZ=             -1.4407
 Hexadecapole moment (field-independent basis, Debye-Ang**3):
 XXXX=           -286.2155 YYYY=           -281.4930 ZZZZ=            -42.6307 XXXY=              5.8073
 XXXZ=              0.5694 YYYX=              5.7653 YYYZ=              3.0921 ZZZX=              0.3744
 ZZZY=              0.0779 XXYY=            -96.1729 XXZZ=            -64.5216 YYZZ=            -61.4787
 XXYZ=             -2.2607 YYXZ=              1.1030 ZZXY=              0.6332
 N-N= 1.994026576456D+02 E-N=-9.355633155832D+02  KE= 2.293571946219D+02
 1\1\GINC-DESKTOP-PRN5QE3\SP\RB3LYP TD-FC\6-31G(d,p)\C6H6\SHOHEI\10-Nov
 -2023\0\\# TD=(NStates=1) B3LYP/6-31G(d,p)\\EMISPCT\\0,1\C,0,0.3050006
 629,1.3665673416,0.0741791421\C,0,1.3986891719,0.3337706312,-0.0489815
 482\C,0,1.0119399485,-0.9675056139,-0.0345868769\C,0,-0.3566022452,-1.
 3527857617,0.0288472277\C,0,-1.3908585898,-0.4299247514,0.0152321637\C
 ,0,-0.980101427,1.0091573752,-0.0774420725\H,0,0.6248237674,2.44592724
 85,0.3153062127\H,0,-1.8653254534,1.8967599345,0.0896165533\H,0,-2.441
 484133,-0.6603142432,-0.0403350193\H,0,-0.6590935174,-2.3107456779,0.0
 218997741\H,0,1.9372197578,-1.5964501839,0.4076467483\H,0,2.5078813892
 ,0.6907373544,-0.2098680927\\Version=EM64L-G16RevB.01\State=1-A\HF=-23
 2.1858059\RMSD=6.746e-09\PG=C01 [X(C6H6)]\\@


 TIMES HAVE CHANGED. IN THE BIBLE WHEN AN ASS
 SPOKE IT WAS CONSIDERED A MIRACLE.
 Job cpu time:       0 days  0 hours  3 minutes  0.8 seconds.
 Elapsed time:       0 days  0 hours  0 minutes 45.9 seconds.
 File lengths (MBytes):  RWF=    116 Int=      0 D2E=      0 Chk=      3 Scr=      1
 Normal termination of Gaussian 16 at Fri Nov 10 21:59:06 2023.
