 Entering Gaussian System, Link 0=g16
 Input=Geometry-323-.com
 Output=Geometry-323-.log
 Initial command:
 /home/shohei/gaussian/g16/l1.exe "/home/shohei/gaussian/scratch/Gau-18871.inp" -scrdir="/home/shohei/gaussian/scratch/"
 Entering Link 1 = /home/shohei/gaussian/g16/l1.exe PID=     18873.
  
 Copyright (c) 1988-2017, Gaussian, Inc.  All Rights Reserved.
  
 This is part of the Gaussian(R) 16 program.  It is based on
 the Gaussian(R) 09 system (copyright 2009, Gaussian, Inc.),
 the Gaussian(R) 03 system (copyright 2003, Gaussian, Inc.),
 the Gaussian(R) 98 system (copyright 1998, Gaussian, Inc.),
 the Gaussian(R) 94 system (copyright 1995, Gaussian, Inc.),
 the Gaussian 92(TM) system (copyright 1992, Gaussian, Inc.),
 the Gaussian 90(TM) system (copyright 1990, Gaussian, Inc.),
 the Gaussian 88(TM) system (copyright 1988, Gaussian, Inc.),
 the Gaussian 86(TM) system (copyright 1986, Carnegie Mellon
 University), and the Gaussian 82(TM) system (copyright 1983,
 Carnegie Mellon University). Gaussian is a federally registered
 trademark of Gaussian, Inc.
  
 This software contains proprietary and confidential information,
 including trade secrets, belonging to Gaussian, Inc.
  
 This software is provided under written license and may be
 used, copied, transmitted, or stored only in accord with that
 written license.
  
 The following legend is applicable only to US Government
 contracts under FAR:
  
                    RESTRICTED RIGHTS LEGEND
  
 Use, reproduction and disclosure by the US Government is
 subject to restrictions as set forth in subparagraphs (a)
 and (c) of the Commercial Computer Software - Restricted
 Rights clause in FAR 52.227-19.
  
 Gaussian, Inc.
 340 Quinnipiac St., Bldg. 40, Wallingford CT 06492
  
  
 ---------------------------------------------------------------
 Warning -- This program may not be used in any manner that
 competes with the business of Gaussian, Inc. or will provide
 assistance to any competitor of Gaussian, Inc.  The licensee
 of this program is prohibited from giving any competitor of
 Gaussian, Inc. access to this program.  By using this program,
 the user acknowledges that Gaussian, Inc. is engaged in the
 business of creating and licensing software in the field of
 computational chemistry and represents and warrants to the
 licensee that it is not a competitor of Gaussian, Inc. and that
 it will not use this program in any manner prohibited above.
 ---------------------------------------------------------------
  

 Cite this work as:
 Gaussian 16, Revision B.01,
 M. J. Frisch, G. W. Trucks, H. B. Schlegel, G. E. Scuseria, 
 M. A. Robb, J. R. Cheeseman, G. Scalmani, V. Barone, 
 G. A. Petersson, H. Nakatsuji, X. Li, M. Caricato, A. V. Marenich, 
 J. Bloino, B. G. Janesko, R. Gomperts, B. Mennucci, H. P. Hratchian, 
 J. V. Ortiz, A. F. Izmaylov, J. L. Sonnenberg, D. Williams-Young, 
 F. Ding, F. Lipparini, F. Egidi, J. Goings, B. Peng, A. Petrone, 
 T. Henderson, D. Ranasinghe, V. G. Zakrzewski, J. Gao, N. Rega, 
 G. Zheng, W. Liang, M. Hada, M. Ehara, K. Toyota, R. Fukuda, 
 J. Hasegawa, M. Ishida, T. Nakajima, Y. Honda, O. Kitao, H. Nakai, 
 T. Vreven, K. Throssell, J. A. Montgomery, Jr., J. E. Peralta, 
 F. Ogliaro, M. J. Bearpark, J. J. Heyd, E. N. Brothers, K. N. Kudin, 
 V. N. Staroverov, T. A. Keith, R. Kobayashi, J. Normand, 
 K. Raghavachari, A. P. Rendell, J. C. Burant, S. S. Iyengar, 
 J. Tomasi, M. Cossi, J. M. Millam, M. Klene, C. Adamo, R. Cammi, 
 J. W. Ochterski, R. L. Martin, K. Morokuma, O. Farkas, 
 J. B. Foresman, and D. J. Fox, Gaussian, Inc., Wallingford CT, 2016.
 
 ******************************************
 Gaussian 16:  EM64L-G16RevB.01 20-Dec-2017
                10-Nov-2023 
 ******************************************
 %nproc=4
 Will use up to    4 processors via shared memory.
 %Mem=2Gb
 ---------------------------------
 # TD=(NStates=1) B3LYP/6-31G(d,p)
 ---------------------------------
 1/38=1,172=1/1;
 2/12=2,17=6,18=5,40=1/2;
 3/5=1,6=6,7=101,11=9,25=1,30=1,74=-5/1,2,3,8;
 4//1;
 5/5=2,38=5/2;
 8/6=1,10=2,108=1/1;
 9/41=1,42=1,70=2/14;
 6/7=2,8=2,9=2,10=2/1;
 99/5=1,9=1/99;
 -------
 EMISPCT
 -------
 Symbolic Z-matrix:
 Charge =  0 Multiplicity = 1
 6                     0.31521   1.39909   0.03337 
 6                     1.42225   0.31869   0.06593 
 6                     1.00081  -0.94308  -0.06829 
 6                    -0.34582  -1.36873  -0.02527 
 6                    -1.31439  -0.40457   0.11642 
 6                    -1.10366   1.01077  -0.0905 
 1                     0.6857    2.37093  -0.13468 
 1                    -1.68116   1.90129  -0.38724 
 1                    -2.35681  -0.72034   0.16589 
 1                    -0.64586  -2.37121  -0.04768 
 1                     1.72906  -1.88593  -0.22987 
 1                     2.49757   0.58669   0.20078 
 
                          Input orientation:                          
 ---------------------------------------------------------------------
 Center     Atomic      Atomic             Coordinates (Angstroms)
 Number     Number       Type             X           Y           Z
 ---------------------------------------------------------------------
      1          6           0        0.315205    1.399087    0.033374
      2          6           0        1.422249    0.318695    0.065930
      3          6           0        1.000811   -0.943079   -0.068288
      4          6           0       -0.345820   -1.368731   -0.025272
      5          6           0       -1.314393   -0.404569    0.116420
      6          6           0       -1.103659    1.010773   -0.090496
      7          1           0        0.685702    2.370929   -0.134683
      8          1           0       -1.681156    1.901287   -0.387238
      9          1           0       -2.356807   -0.720344    0.165892
     10          1           0       -0.645858   -2.371209   -0.047684
     11          1           0        1.729064   -1.885931   -0.229869
     12          1           0        2.497567    0.586693    0.200777
 ---------------------------------------------------------------------
                    Distance matrix (angstroms):
                    1          2          3          4          5
     1  C    0.000000
     2  C    1.547208   0.000000
     3  C    2.442567   1.337048   0.000000
     4  C    2.846262   2.445770   1.412956   0.000000
     5  C    2.432213   2.831055   2.384174   1.373980   0.000000
     6  C    1.476247   2.623672   2.871729   2.498122   1.445827
     7  H    1.053560   2.189615   3.329617   3.880859   3.430280
     8  H    2.101090   3.512988   3.922384   3.550657   2.388547
     9  H    3.413092   3.920569   3.373137   2.121560   1.090316
    10  H    3.891702   3.394931   2.179793   1.046655   2.083637
    11  H    3.586033   2.245441   1.202260   2.148139   3.402497
    12  H    2.334675   1.116385   2.157053   3.458270   3.939639
                    6          7          8          9         10
     6  C    0.000000
     7  H    2.248063   0.000000
     8  H    1.102077   2.426183   0.000000
     9  H    2.152413   4.347778   2.763224   0.000000
    10  H    3.413095   4.926306   4.409236   2.387115   0.000000
    11  H    4.053966   4.383893   5.098763   4.267266   2.430831
    12  H    3.637789   2.564934   4.419914   5.027376   4.323429
                   11         12
    11  H    0.000000
    12  H    2.624866   0.000000
 Stoichiometry    C6H6
 Framework group  C1[X(C6H6)]
 Deg. of freedom    30
 Full point group                 C1      NOp   1
 Largest Abelian subgroup         C1      NOp   1
 Largest concise Abelian subgroup C1      NOp   1
                         Standard orientation:                         
 ---------------------------------------------------------------------
 Center     Atomic      Atomic             Coordinates (Angstroms)
 Number     Number       Type             X           Y           Z
 ---------------------------------------------------------------------
      1          6           0        0.682189    1.262027   -0.046371
      2          6           0       -0.862338    1.173440   -0.067355
      3          6           0       -1.371501   -0.054902    0.072745
      4          6           0       -0.635202   -1.259957    0.026356
      5          6           0        0.727285   -1.168478   -0.125572
      6          6           0        1.498724    0.038021    0.073570
      7          1           0        1.041735    2.238710    0.117351
      8          1           0        2.521066    0.331365    0.362256
      9          1           0        1.306130   -2.090978   -0.177738
     10          1           0       -1.066604   -2.213181    0.053598
     11          1           0       -2.538542   -0.287998    0.243361
     12          1           0       -1.498727    2.081172   -0.199063
 ---------------------------------------------------------------------
 Rotational constants (GHZ):           5.5706538           5.3159304           2.7402909
 Standard basis: 6-31G(d,p) (6D, 7F)
 There are   120 symmetry adapted cartesian basis functions of A   symmetry.
 There are   120 symmetry adapted basis functions of A   symmetry.
   120 basis functions,   210 primitive gaussians,   120 cartesian basis functions
    21 alpha electrons       21 beta electrons
       nuclear repulsion energy       199.2155798984 Hartrees.
 NAtoms=   12 NActive=   12 NUniq=   12 SFac= 1.00D+00 NAtFMM=   60 NAOKFM=F Big=F
 Integral buffers will be    131072 words long.
 Regular integral format.
 Two-electron integral symmetry is turned on.
 One-electron integrals computed using PRISM.
 NBasis=   120 RedAO= T EigKep=  9.32D-04  NBF=   120
 NBsUse=   120 1.00D-06 EigRej= -1.00D+00 NBFU=   120
 ExpMin= 1.61D-01 ExpMax= 3.05D+03 ExpMxC= 4.57D+02 IAcc=3 IRadAn=         5 AccDes= 0.00D+00
 Harris functional with IExCor=  402 and IRadAn=       5 diagonalized for initial guess.
 HarFok:  IExCor=  402 AccDes= 0.00D+00 IRadAn=         5 IDoV= 1 UseB2=F ITyADJ=14
 ICtDFT=  3500011 ScaDFX=  1.000000  1.000000  1.000000  1.000000
 FoFCou: FMM=F IPFlag=           0 FMFlag=      100000 FMFlg1=           0
         NFxFlg=           0 DoJE=T BraDBF=F KetDBF=T FulRan=T
         wScrn=  0.000000 ICntrl=       500 IOpCl=  0 I1Cent=   200000004 NGrid=           0
         NMat0=    1 NMatS0=      1 NMatT0=    0 NMatD0=    1 NMtDS0=    0 NMtDT0=    0
 Petite list used in FoFCou.
 Keep R1 ints in memory in canonical form, NReq=30147728.
 Requested convergence on RMS density matrix=1.00D-08 within 128 cycles.
 Requested convergence on MAX density matrix=1.00D-06.
 Requested convergence on             energy=1.00D-06.
 No special actions if energy rises.
 Integral accuracy reduced to 1.0D-05 until final iterations.
 Initial convergence to 1.0D-05 achieved.  Increase integral accuracy.
 SCF Done:  E(RB3LYP) =  -232.201619618     A.U. after   13 cycles
            NFock= 13  Conv=0.97D-08     -V/T= 2.0119
 DoSCS=F DFT=T ScalE2(SS,OS)=  1.000000  1.000000
 ExpMin= 1.61D-01 ExpMax= 3.05D+03 ExpMxC= 4.57D+02 IAcc=3 IRadAn=         5 AccDes= 0.00D+00
 HarFok:  IExCor=  205 AccDes= 0.00D+00 IRadAn=         5 IDoV=-2 UseB2=F ITyADJ=14
 ICtDFT= 12500011 ScaDFX=  1.000000  1.000000  1.000000  1.000000
 Range of M.O.s used for correlation:     7   120
 NBasis=   120 NAE=    21 NBE=    21 NFC=     6 NFV=     0
 NROrb=    114 NOA=    15 NOB=    15 NVA=    99 NVB=    99
 Keep R1, R2, and R3 ints in memory in canonical form, NReq=84032236.
 Orbital symmetries:
       Occupied  (A) (A) (A) (A) (A) (A) (A) (A) (A) (A) (A) (A)
                 (A) (A) (A) (A) (A) (A) (A) (A) (A)
       Virtual   (A) (A) (A) (A) (A) (A) (A) (A) (A) (A) (A) (A)
                 (A) (A) (A) (A) (A) (A) (A) (A) (A) (A) (A) (A)
                 (A) (A) (A) (A) (A) (A) (A) (A) (A) (A) (A) (A)
                 (A) (A) (A) (A) (A) (A) (A) (A) (A) (A) (A) (A)
                 (A) (A) (A) (A) (A) (A) (A) (A) (A) (A) (A) (A)
                 (A) (A) (A) (A) (A) (A) (A) (A) (A) (A) (A) (A)
                 (A) (A) (A) (A) (A) (A) (A) (A) (A) (A) (A) (A)
                 (A) (A) (A) (A) (A) (A) (A) (A) (A) (A) (A) (A)
                 (A) (A) (A)
     4 initial guesses have been made.
 Convergence on wavefunction:    0.001000000000000
 Iteration     1 Dimension     4 NMult     0 NNew      4
 CISAX will form     4 AO SS matrices at one time.
 New state      1 was old state      2
 Iteration     2 Dimension     6 NMult     4 NNew      2
 Iteration     3 Dimension     8 NMult     6 NNew      2
 Iteration     4 Dimension    10 NMult     8 NNew      2
 Iteration     5 Dimension    12 NMult    10 NNew      2
 ***********************************************************************
 Excited states from <AA,BB:AA,BB> singles matrix:
 ***********************************************************************
 
 Ground to excited state transition densities written to RWF  633
 Ground to excited state transition electric dipole moments (Au):
       state          X           Y           Z        Dip. S.      Osc.
         1        -0.0511     -0.0372      0.0095      0.0041      0.0005
 Ground to excited state transition velocity dipole moments (Au):
       state          X           Y           Z        Dip. S.      Osc.
         1         0.0097      0.0052      0.0001      0.0001      0.0004
 Ground to excited state transition magnetic dipole moments (Au):
       state          X           Y           Z
         1         0.0369     -0.0431      0.0518
 Ground to excited state transition velocity quadrupole moments (Au):
       state          XX          YY          ZZ          XY          XZ          YZ
         1         0.0188     -0.0001     -0.0074      0.0019      0.0170      0.0350
 <0|del|b> * <b|rxdel|0> + <0|del|b> * <b|delr+rdel|0>
 Rotatory Strengths (R) in cgs (10**-40 erg-esu-cm/Gauss)
       state          XX          YY          ZZ    R(velocity)    E-M Angle
         1        -0.5846      1.3175     -0.2211      0.1706       80.74
 1/2[<0|r|b>*<b|rxdel|0> + (<0|rxdel|b>*<b|r|0>)*]
 Rotatory Strengths (R) in cgs (10**-40 erg-esu-cm/Gauss)
       state          XX          YY          ZZ     R(length)
         1         1.3351     -1.1312     -0.3483     -0.0481
  1/2[<0|del|b>*<b|r|0> + (<0|r|b>*<b|del|0>)*] (Au)
       state          X           Y           Z        Dip. S.   Osc.(frdel)
         1        -0.0005     -0.0002      0.0000      0.0007      0.0005

 Excitation energies and oscillator strengths:
 
 Excited State   1:      Singlet-A      5.1072 eV  242.76 nm  f=0.0005  <S**2>=0.000
      20 -> 22        -0.47905
      21 -> 22         0.12319
      21 -> 23         0.49972
 This state for optimization and/or second-order correction.
 Total Energy, E(TD-HF/TD-DFT) =  -232.013933056    
 Copying the excited state density for this state as the 1-particle RhoCI density.
 SavETr:  write IOETrn=   770 NScale= 10 NData=  16 NLR=1 NState=    1 LETran=      28.

 **********************************************************************

            Population analysis using the SCF Density.

 **********************************************************************

 Orbital symmetries:
       Occupied  (A) (A) (A) (A) (A) (A) (A) (A) (A) (A) (A) (A)
                 (A) (A) (A) (A) (A) (A) (A) (A) (A)
       Virtual   (A) (A) (A) (A) (A) (A) (A) (A) (A) (A) (A) (A)
                 (A) (A) (A) (A) (A) (A) (A) (A) (A) (A) (A) (A)
                 (A) (A) (A) (A) (A) (A) (A) (A) (A) (A) (A) (A)
                 (A) (A) (A) (A) (A) (A) (A) (A) (A) (A) (A) (A)
                 (A) (A) (A) (A) (A) (A) (A) (A) (A) (A) (A) (A)
                 (A) (A) (A) (A) (A) (A) (A) (A) (A) (A) (A) (A)
                 (A) (A) (A) (A) (A) (A) (A) (A) (A) (A) (A) (A)
                 (A) (A) (A) (A) (A) (A) (A) (A) (A) (A) (A) (A)
                 (A) (A) (A)
 The electronic state is 1-A.
 Alpha  occ. eigenvalues --  -10.20675 -10.20319 -10.19979 -10.19601 -10.19575
 Alpha  occ. eigenvalues --  -10.18664  -0.83597  -0.73812  -0.72891  -0.60003
 Alpha  occ. eigenvalues --   -0.58715  -0.51007  -0.46591  -0.43767  -0.41439
 Alpha  occ. eigenvalues --   -0.40293  -0.35734  -0.34541  -0.31333  -0.24821
 Alpha  occ. eigenvalues --   -0.23540
 Alpha virt. eigenvalues --   -0.01410  -0.00256   0.08500   0.11796   0.14336
 Alpha virt. eigenvalues --    0.14676   0.15561   0.17478   0.18781   0.25698
 Alpha virt. eigenvalues --    0.28191   0.29702   0.33489   0.45143   0.46131
 Alpha virt. eigenvalues --    0.52778   0.53523   0.55369   0.58266   0.59204
 Alpha virt. eigenvalues --    0.59783   0.60361   0.61456   0.63066   0.64571
 Alpha virt. eigenvalues --    0.66424   0.66766   0.72700   0.78676   0.80043
 Alpha virt. eigenvalues --    0.81913   0.84937   0.85277   0.88768   0.91944
 Alpha virt. eigenvalues --    0.92605   0.95784   1.03430   1.06467   1.07499
 Alpha virt. eigenvalues --    1.11269   1.15920   1.25359   1.30015   1.31630
 Alpha virt. eigenvalues --    1.37083   1.42397   1.43789   1.45906   1.54509
 Alpha virt. eigenvalues --    1.61675   1.69306   1.75477   1.80162   1.85683
 Alpha virt. eigenvalues --    1.87848   1.90002   1.94202   1.98610   1.99834
 Alpha virt. eigenvalues --    2.01858   2.02947   2.07794   2.21901   2.23245
 Alpha virt. eigenvalues --    2.26739   2.31016   2.32787   2.37883   2.38965
 Alpha virt. eigenvalues --    2.42426   2.43734   2.45253   2.46841   2.48867
 Alpha virt. eigenvalues --    2.53019   2.53903   2.55097   2.60658   2.65163
 Alpha virt. eigenvalues --    2.69073   2.73878   2.77448   2.89072   2.99125
 Alpha virt. eigenvalues --    3.07906   3.12000   3.20464   3.30973   3.38524
 Alpha virt. eigenvalues --    3.48420   3.51600   3.81194   4.10281   4.16262
 Alpha virt. eigenvalues --    4.19167   4.42319   4.45053   4.75857
          Condensed to atoms (all electrons):
               1          2          3          4          5          6
     1  C    4.934660   0.469394  -0.026929  -0.038263  -0.029645   0.522024
     2  C    0.469394   4.860776   0.587529  -0.047193  -0.036012  -0.032910
     3  C   -0.026929   0.587529   4.773431   0.518827  -0.032274  -0.035506
     4  C   -0.038263  -0.047193   0.518827   4.788205   0.568088  -0.036113
     5  C   -0.029645  -0.036012  -0.032274   0.568088   4.841675   0.497781
     6  C    0.522024  -0.032910  -0.035506  -0.036113   0.497781   4.880469
     7  H    0.362945  -0.039380   0.003678   0.001088   0.003844  -0.037892
     8  H   -0.045860   0.003266   0.000357   0.002257  -0.028937   0.372972
     9  H    0.004492   0.000796   0.006288  -0.040693   0.362362  -0.050509
    10  H    0.000105   0.005235  -0.039603   0.382005  -0.047201   0.004791
    11  H    0.004305  -0.040563   0.347534  -0.044226   0.006104   0.000443
    12  H   -0.036288   0.367786  -0.037247   0.004106   0.000073   0.002928
               7          8          9         10         11         12
     1  C    0.362945  -0.045860   0.004492   0.000105   0.004305  -0.036288
     2  C   -0.039380   0.003266   0.000796   0.005235  -0.040563   0.367786
     3  C    0.003678   0.000357   0.006288  -0.039603   0.347534  -0.037247
     4  C    0.001088   0.002257  -0.040693   0.382005  -0.044226   0.004106
     5  C    0.003844  -0.028937   0.362362  -0.047201   0.006104   0.000073
     6  C   -0.037892   0.372972  -0.050509   0.004791   0.000443   0.002928
     7  H    0.622530  -0.004314  -0.000188   0.000011  -0.000166  -0.002913
     8  H   -0.004314   0.593679  -0.003072  -0.000102   0.000012  -0.000118
     9  H   -0.000188  -0.003072   0.649100  -0.008441  -0.000235   0.000013
    10  H    0.000011  -0.000102  -0.008441   0.616148  -0.007211  -0.000149
    11  H   -0.000166   0.000012  -0.000235  -0.007211   0.673625  -0.006181
    12  H   -0.002913  -0.000118   0.000013  -0.000149  -0.006181   0.611495
 Mulliken charges:
               1
     1  C   -0.120941
     2  C   -0.098723
     3  C   -0.066084
     4  C   -0.058088
     5  C   -0.105857
     6  C   -0.088478
     7  H    0.090757
     8  H    0.109859
     9  H    0.080087
    10  H    0.094414
    11  H    0.066558
    12  H    0.096496
 Sum of Mulliken charges =  -0.00000
 Mulliken charges with hydrogens summed into heavy atoms:
               1
     1  C   -0.030184
     2  C   -0.002227
     3  C    0.000474
     4  C    0.036325
     5  C   -0.025770
     6  C    0.021381
 Electronic spatial extent (au):  <R**2>=            473.7464
 Charge=             -0.0000 electrons
 Dipole moment (field-independent basis, Debye):
    X=              0.0629    Y=              0.0150    Z=              0.2623  Tot=              0.2702
 Quadrupole moment (field-independent basis, Debye-Ang):
   XX=            -31.9840   YY=            -31.1876   ZZ=            -38.7828
   XY=              0.5232   XZ=              0.5766   YZ=              0.1132
 Traceless Quadrupole moment (field-independent basis, Debye-Ang):
   XX=              2.0008   YY=              2.7972   ZZ=             -4.7980
   XY=              0.5232   XZ=              0.5766   YZ=              0.1132
 Octapole moment (field-independent basis, Debye-Ang**2):
  XXX=              2.2092  YYY=             -0.0163  ZZZ=              0.3611  XYY=             -1.4037
  XXY=              0.9664  XXZ=              2.4842  XZZ=              0.0892  YZZ=             -0.3002
  YYZ=             -0.1047  XYZ=              1.5262
 Hexadecapole moment (field-independent basis, Debye-Ang**3):
 XXXX=           -292.3622 YYYY=           -271.1756 ZZZZ=            -43.0193 XXXY=              4.3611
 XXXZ=              3.8581 YYYX=              0.4991 YYYZ=              0.3331 ZZZX=              0.7642
 ZZZY=              0.1684 XXYY=            -93.1005 XXZZ=            -63.6559 YYZZ=            -61.4413
 XXYZ=              0.3655 YYXZ=              1.1691 ZZXY=              0.2534
 N-N= 1.992155798984D+02 E-N=-9.353230898903D+02  KE= 2.294710825915D+02
 1\1\GINC-DESKTOP-PRN5QE3\SP\RB3LYP TD-FC\6-31G(d,p)\C6H6\SHOHEI\10-Nov
 -2023\0\\# TD=(NStates=1) B3LYP/6-31G(d,p)\\EMISPCT\\0,1\C,0,0.3152051
 343,1.399086731,0.0333736382\C,0,1.4222491659,0.3186948778,0.065930031
 5\C,0,1.0008114354,-0.9430792393,-0.0682881931\C,0,-0.3458199071,-1.36
 87312205,-0.0252720784\C,0,-1.3143934547,-0.404568637,0.1164202063\C,0
 ,-1.1036588004,1.0107732013,-0.0904957701\H,0,0.6857016413,2.370928817
 6,-0.1346827553\H,0,-1.6811562024,1.901287187,-0.3872377083\H,0,-2.356
 8070515,-0.7203444611,0.1658920149\H,0,-0.6458576362,-2.3712088945,-0.
 0476838888\H,0,1.7290642669,-1.8859308029,-0.2298693621\H,0,2.49756657
 43,0.5866933222,0.2007772975\\Version=EM64L-G16RevB.01\State=1-A\HF=-2
 32.2016196\RMSD=9.735e-09\PG=C01 [X(C6H6)]\\@


 When I told the people of Northern Ireland that I was
 an atheist, a woman in the audience stood up and said,
 "Yes, but is it the God of the Catholics or the God
 of the Protestants in whom you don't believe?"
                               -- Quentin Crisp
 Job cpu time:       0 days  0 hours  3 minutes  2.6 seconds.
 Elapsed time:       0 days  0 hours  0 minutes 46.3 seconds.
 File lengths (MBytes):  RWF=    116 Int=      0 D2E=      0 Chk=      3 Scr=      1
 Normal termination of Gaussian 16 at Fri Nov 10 20:35:20 2023.
