 Entering Gaussian System, Link 0=g16
 Input=Geometry-466-.com
 Output=Geometry-466-.log
 Initial command:
 /home/shohei/gaussian/g16/l1.exe "/home/shohei/gaussian/scratch/Gau-30993.inp" -scrdir="/home/shohei/gaussian/scratch/"
 Entering Link 1 = /home/shohei/gaussian/g16/l1.exe PID=     30995.
  
 Copyright (c) 1988-2017, Gaussian, Inc.  All Rights Reserved.
  
 This is part of the Gaussian(R) 16 program.  It is based on
 the Gaussian(R) 09 system (copyright 2009, Gaussian, Inc.),
 the Gaussian(R) 03 system (copyright 2003, Gaussian, Inc.),
 the Gaussian(R) 98 system (copyright 1998, Gaussian, Inc.),
 the Gaussian(R) 94 system (copyright 1995, Gaussian, Inc.),
 the Gaussian 92(TM) system (copyright 1992, Gaussian, Inc.),
 the Gaussian 90(TM) system (copyright 1990, Gaussian, Inc.),
 the Gaussian 88(TM) system (copyright 1988, Gaussian, Inc.),
 the Gaussian 86(TM) system (copyright 1986, Carnegie Mellon
 University), and the Gaussian 82(TM) system (copyright 1983,
 Carnegie Mellon University). Gaussian is a federally registered
 trademark of Gaussian, Inc.
  
 This software contains proprietary and confidential information,
 including trade secrets, belonging to Gaussian, Inc.
  
 This software is provided under written license and may be
 used, copied, transmitted, or stored only in accord with that
 written license.
  
 The following legend is applicable only to US Government
 contracts under FAR:
  
                    RESTRICTED RIGHTS LEGEND
  
 Use, reproduction and disclosure by the US Government is
 subject to restrictions as set forth in subparagraphs (a)
 and (c) of the Commercial Computer Software - Restricted
 Rights clause in FAR 52.227-19.
  
 Gaussian, Inc.
 340 Quinnipiac St., Bldg. 40, Wallingford CT 06492
  
  
 ---------------------------------------------------------------
 Warning -- This program may not be used in any manner that
 competes with the business of Gaussian, Inc. or will provide
 assistance to any competitor of Gaussian, Inc.  The licensee
 of this program is prohibited from giving any competitor of
 Gaussian, Inc. access to this program.  By using this program,
 the user acknowledges that Gaussian, Inc. is engaged in the
 business of creating and licensing software in the field of
 computational chemistry and represents and warrants to the
 licensee that it is not a competitor of Gaussian, Inc. and that
 it will not use this program in any manner prohibited above.
 ---------------------------------------------------------------
  

 Cite this work as:
 Gaussian 16, Revision B.01,
 M. J. Frisch, G. W. Trucks, H. B. Schlegel, G. E. Scuseria, 
 M. A. Robb, J. R. Cheeseman, G. Scalmani, V. Barone, 
 G. A. Petersson, H. Nakatsuji, X. Li, M. Caricato, A. V. Marenich, 
 J. Bloino, B. G. Janesko, R. Gomperts, B. Mennucci, H. P. Hratchian, 
 J. V. Ortiz, A. F. Izmaylov, J. L. Sonnenberg, D. Williams-Young, 
 F. Ding, F. Lipparini, F. Egidi, J. Goings, B. Peng, A. Petrone, 
 T. Henderson, D. Ranasinghe, V. G. Zakrzewski, J. Gao, N. Rega, 
 G. Zheng, W. Liang, M. Hada, M. Ehara, K. Toyota, R. Fukuda, 
 J. Hasegawa, M. Ishida, T. Nakajima, Y. Honda, O. Kitao, H. Nakai, 
 T. Vreven, K. Throssell, J. A. Montgomery, Jr., J. E. Peralta, 
 F. Ogliaro, M. J. Bearpark, J. J. Heyd, E. N. Brothers, K. N. Kudin, 
 V. N. Staroverov, T. A. Keith, R. Kobayashi, J. Normand, 
 K. Raghavachari, A. P. Rendell, J. C. Burant, S. S. Iyengar, 
 J. Tomasi, M. Cossi, J. M. Millam, M. Klene, C. Adamo, R. Cammi, 
 J. W. Ochterski, R. L. Martin, K. Morokuma, O. Farkas, 
 J. B. Foresman, and D. J. Fox, Gaussian, Inc., Wallingford CT, 2016.
 
 ******************************************
 Gaussian 16:  EM64L-G16RevB.01 20-Dec-2017
                10-Nov-2023 
 ******************************************
 %nproc=4
 Will use up to    4 processors via shared memory.
 %Mem=2Gb
 ---------------------------------
 # TD=(NStates=1) B3LYP/6-31G(d,p)
 ---------------------------------
 1/38=1,172=1/1;
 2/12=2,17=6,18=5,40=1/2;
 3/5=1,6=6,7=101,11=9,25=1,30=1,74=-5/1,2,3,8;
 4//1;
 5/5=2,38=5/2;
 8/6=1,10=2,108=1/1;
 9/41=1,42=1,70=2/14;
 6/7=2,8=2,9=2,10=2/1;
 99/5=1,9=1/99;
 -------
 EMISPCT
 -------
 Symbolic Z-matrix:
 Charge =  0 Multiplicity = 1
 6                     0.34401   1.40911   0.03693 
 6                     1.303     0.4039   -0.04345 
 6                     1.01582  -1.02138   0.01757 
 6                    -0.36109  -1.46353  -0.01136 
 6                    -1.28486  -0.38249  -0.02763 
 6                    -0.99757   1.03269   0.05305 
 1                     0.63487   2.49446  -0.31 
 1                    -1.96687   1.71934  -0.2086 
 1                    -2.2881   -0.54578   0.02999 
 1                    -0.82403  -2.37071  -0.02237 
 1                     1.77963  -1.87515   0.05998 
 1                     2.47645   0.79483   0.10782 
 
                          Input orientation:                          
 ---------------------------------------------------------------------
 Center     Atomic      Atomic             Coordinates (Angstroms)
 Number     Number       Type             X           Y           Z
 ---------------------------------------------------------------------
      1          6           0        0.344008    1.409114    0.036934
      2          6           0        1.303000    0.403897   -0.043447
      3          6           0        1.015823   -1.021378    0.017566
      4          6           0       -0.361088   -1.463534   -0.011364
      5          6           0       -1.284862   -0.382494   -0.027627
      6          6           0       -0.997568    1.032694    0.053049
      7          1           0        0.634869    2.494463   -0.310003
      8          1           0       -1.966869    1.719338   -0.208597
      9          1           0       -2.288104   -0.545780    0.029993
     10          1           0       -0.824026   -2.370706   -0.022373
     11          1           0        1.779630   -1.875148    0.059982
     12          1           0        2.476446    0.794834    0.107821
 ---------------------------------------------------------------------
                    Distance matrix (angstroms):
                    1          2          3          4          5
     1  C    0.000000
     2  C    1.391613   0.000000
     3  C    2.521706   1.455198   0.000000
     4  C    2.958310   2.501503   1.446452   0.000000
     5  C    2.422239   2.704753   2.388172   1.422066   0.000000
     6  C    1.393477   2.386904   2.876494   2.576899   1.446306
     7  H    1.175989   2.210864   3.551559   4.092293   3.470156
     8  H    2.344499   3.528413   4.056985   3.570449   2.217111
     9  H    3.278669   3.715280   3.338005   2.134800   1.018075
    10  H    3.956622   3.496156   2.281957   1.018526   2.040928
    11  H    3.584399   2.330648   1.146352   2.181098   3.409810
    12  H    2.220282   1.246069   2.332422   3.628502   3.943587
                    6          7          8          9         10
     6  C    0.000000
     7  H    2.221132   0.000000
     8  H    1.216340   2.716642   0.000000
     9  H    2.039017   4.231128   2.300191   0.000000
    10  H    3.408656   5.087336   4.250792   2.340219   0.000000
    11  H    4.020998   4.532204   5.198915   4.279553   2.651675
    12  H    3.482578   2.540614   4.549491   4.950175   4.575009
                   11         12
    11  H    0.000000
    12  H    2.759827   0.000000
 Stoichiometry    C6H6
 Framework group  C1[X(C6H6)]
 Deg. of freedom    30
 Full point group                 C1      NOp   1
 Largest Abelian subgroup         C1      NOp   1
 Largest concise Abelian subgroup C1      NOp   1
                         Standard orientation:                         
 ---------------------------------------------------------------------
 Center     Atomic      Atomic             Coordinates (Angstroms)
 Number     Number       Type             X           Y           Z
 ---------------------------------------------------------------------
      1          6           0        1.393488    0.395581   -0.052337
      2          6           0        0.355758    1.317912    0.042563
      3          6           0       -1.058968    0.980742   -0.007130
      4          6           0       -1.451842   -0.411105    0.018056
      5          6           0       -0.338688   -1.296068    0.019305
      6          6           0        1.064639   -0.958387   -0.072591
      7          1           0        2.471036    0.722870    0.286368
      8          1           0        1.787546   -1.904124    0.177350
      9          1           0       -0.466902   -2.304145   -0.042480
     10          1           0       -2.341925   -0.905948    0.034690
     11          1           0       -1.939586    1.714032   -0.037494
     12          1           0        0.703511    2.505259   -0.105635
 ---------------------------------------------------------------------
 Rotational constants (GHZ):           5.7849399           5.1456657           2.7305011
 Standard basis: 6-31G(d,p) (6D, 7F)
 There are   120 symmetry adapted cartesian basis functions of A   symmetry.
 There are   120 symmetry adapted basis functions of A   symmetry.
   120 basis functions,   210 primitive gaussians,   120 cartesian basis functions
    21 alpha electrons       21 beta electrons
       nuclear repulsion energy       198.8550614810 Hartrees.
 NAtoms=   12 NActive=   12 NUniq=   12 SFac= 1.00D+00 NAtFMM=   60 NAOKFM=F Big=F
 Integral buffers will be    131072 words long.
 Regular integral format.
 Two-electron integral symmetry is turned on.
 One-electron integrals computed using PRISM.
 NBasis=   120 RedAO= T EigKep=  9.26D-04  NBF=   120
 NBsUse=   120 1.00D-06 EigRej= -1.00D+00 NBFU=   120
 ExpMin= 1.61D-01 ExpMax= 3.05D+03 ExpMxC= 4.57D+02 IAcc=3 IRadAn=         5 AccDes= 0.00D+00
 Harris functional with IExCor=  402 and IRadAn=       5 diagonalized for initial guess.
 HarFok:  IExCor=  402 AccDes= 0.00D+00 IRadAn=         5 IDoV= 1 UseB2=F ITyADJ=14
 ICtDFT=  3500011 ScaDFX=  1.000000  1.000000  1.000000  1.000000
 FoFCou: FMM=F IPFlag=           0 FMFlag=      100000 FMFlg1=           0
         NFxFlg=           0 DoJE=T BraDBF=F KetDBF=T FulRan=T
         wScrn=  0.000000 ICntrl=       500 IOpCl=  0 I1Cent=   200000004 NGrid=           0
         NMat0=    1 NMatS0=      1 NMatT0=    0 NMatD0=    1 NMtDS0=    0 NMtDT0=    0
 Petite list used in FoFCou.
 Keep R1 ints in memory in canonical form, NReq=30147728.
 Requested convergence on RMS density matrix=1.00D-08 within 128 cycles.
 Requested convergence on MAX density matrix=1.00D-06.
 Requested convergence on             energy=1.00D-06.
 No special actions if energy rises.
 Integral accuracy reduced to 1.0D-05 until final iterations.
 Initial convergence to 1.0D-05 achieved.  Increase integral accuracy.
 SCF Done:  E(RB3LYP) =  -232.191131521     A.U. after   13 cycles
            NFock= 13  Conv=0.98D-08     -V/T= 2.0127
 DoSCS=F DFT=T ScalE2(SS,OS)=  1.000000  1.000000
 ExpMin= 1.61D-01 ExpMax= 3.05D+03 ExpMxC= 4.57D+02 IAcc=3 IRadAn=         5 AccDes= 0.00D+00
 HarFok:  IExCor=  205 AccDes= 0.00D+00 IRadAn=         5 IDoV=-2 UseB2=F ITyADJ=14
 ICtDFT= 12500011 ScaDFX=  1.000000  1.000000  1.000000  1.000000
 Range of M.O.s used for correlation:     7   120
 NBasis=   120 NAE=    21 NBE=    21 NFC=     6 NFV=     0
 NROrb=    114 NOA=    15 NOB=    15 NVA=    99 NVB=    99
 Keep R1, R2, and R3 ints in memory in canonical form, NReq=84032236.
 Orbital symmetries:
       Occupied  (A) (A) (A) (A) (A) (A) (A) (A) (A) (A) (A) (A)
                 (A) (A) (A) (A) (A) (A) (A) (A) (A)
       Virtual   (A) (A) (A) (A) (A) (A) (A) (A) (A) (A) (A) (A)
                 (A) (A) (A) (A) (A) (A) (A) (A) (A) (A) (A) (A)
                 (A) (A) (A) (A) (A) (A) (A) (A) (A) (A) (A) (A)
                 (A) (A) (A) (A) (A) (A) (A) (A) (A) (A) (A) (A)
                 (A) (A) (A) (A) (A) (A) (A) (A) (A) (A) (A) (A)
                 (A) (A) (A) (A) (A) (A) (A) (A) (A) (A) (A) (A)
                 (A) (A) (A) (A) (A) (A) (A) (A) (A) (A) (A) (A)
                 (A) (A) (A) (A) (A) (A) (A) (A) (A) (A) (A) (A)
                 (A) (A) (A)
     4 initial guesses have been made.
 Convergence on wavefunction:    0.001000000000000
 Iteration     1 Dimension     4 NMult     0 NNew      4
 CISAX will form     4 AO SS matrices at one time.
 Iteration     2 Dimension     6 NMult     4 NNew      2
 Iteration     3 Dimension     8 NMult     6 NNew      2
 Iteration     4 Dimension    10 NMult     8 NNew      2
 Iteration     5 Dimension    12 NMult    10 NNew      2
 ***********************************************************************
 Excited states from <AA,BB:AA,BB> singles matrix:
 ***********************************************************************
 
 Ground to excited state transition densities written to RWF  633
 Ground to excited state transition electric dipole moments (Au):
       state          X           Y           Z        Dip. S.      Osc.
         1         0.1520     -0.1208     -0.0067      0.0377      0.0047
 Ground to excited state transition velocity dipole moments (Au):
       state          X           Y           Z        Dip. S.      Osc.
         1        -0.0297      0.0240      0.0013      0.0015      0.0052
 Ground to excited state transition magnetic dipole moments (Au):
       state          X           Y           Z
         1        -0.0175     -0.0335      0.0463
 Ground to excited state transition velocity quadrupole moments (Au):
       state          XX          YY          ZZ          XY          XZ          YZ
         1         0.0087      0.0065     -0.0023      0.0118      0.0102     -0.0144
 <0|del|b> * <b|rxdel|0> + <0|del|b> * <b|delr+rdel|0>
 Rotatory Strengths (R) in cgs (10**-40 erg-esu-cm/Gauss)
       state          XX          YY          ZZ    R(velocity)    E-M Angle
         1        -1.8313      1.8685     -0.8797     -0.2808       95.63
 1/2[<0|r|b>*<b|rxdel|0> + (<0|rxdel|b>*<b|r|0>)*]
 Rotatory Strengths (R) in cgs (10**-40 erg-esu-cm/Gauss)
       state          XX          YY          ZZ     R(length)
         1         1.8861     -2.8612      0.2202     -0.2516
  1/2[<0|del|b>*<b|r|0> + (<0|r|b>*<b|del|0>)*] (Au)
       state          X           Y           Z        Dip. S.   Osc.(frdel)
         1        -0.0045     -0.0029     -0.0000      0.0074      0.0049

 Excitation energies and oscillator strengths:
 
 Excited State   1:      Singlet-A      5.1162 eV  242.34 nm  f=0.0047  <S**2>=0.000
      20 -> 22        -0.31793
      20 -> 23         0.31309
      21 -> 22         0.41906
      21 -> 23         0.35338
 This state for optimization and/or second-order correction.
 Total Energy, E(TD-HF/TD-DFT) =  -232.003114741    
 Copying the excited state density for this state as the 1-particle RhoCI density.
 SavETr:  write IOETrn=   770 NScale= 10 NData=  16 NLR=1 NState=    1 LETran=      28.

 **********************************************************************

            Population analysis using the SCF Density.

 **********************************************************************

 Orbital symmetries:
       Occupied  (A) (A) (A) (A) (A) (A) (A) (A) (A) (A) (A) (A)
                 (A) (A) (A) (A) (A) (A) (A) (A) (A)
       Virtual   (A) (A) (A) (A) (A) (A) (A) (A) (A) (A) (A) (A)
                 (A) (A) (A) (A) (A) (A) (A) (A) (A) (A) (A) (A)
                 (A) (A) (A) (A) (A) (A) (A) (A) (A) (A) (A) (A)
                 (A) (A) (A) (A) (A) (A) (A) (A) (A) (A) (A) (A)
                 (A) (A) (A) (A) (A) (A) (A) (A) (A) (A) (A) (A)
                 (A) (A) (A) (A) (A) (A) (A) (A) (A) (A) (A) (A)
                 (A) (A) (A) (A) (A) (A) (A) (A) (A) (A) (A) (A)
                 (A) (A) (A) (A) (A) (A) (A) (A) (A) (A) (A) (A)
                 (A) (A) (A)
 The electronic state is 1-A.
 Alpha  occ. eigenvalues --  -10.21400 -10.21256 -10.20521 -10.20225 -10.19604
 Alpha  occ. eigenvalues --  -10.18547  -0.83771  -0.74497  -0.72439  -0.59902
 Alpha  occ. eigenvalues --   -0.58801  -0.50421  -0.45854  -0.43274  -0.41927
 Alpha  occ. eigenvalues --   -0.39011  -0.35817  -0.33646  -0.32386  -0.25233
 Alpha  occ. eigenvalues --   -0.23909
 Alpha virt. eigenvalues --   -0.01468  -0.00772   0.06721   0.11179   0.12819
 Alpha virt. eigenvalues --    0.14024   0.15078   0.16554   0.19974   0.26520
 Alpha virt. eigenvalues --    0.28648   0.29959   0.31068   0.46727   0.48844
 Alpha virt. eigenvalues --    0.51770   0.52643   0.54794   0.58661   0.59662
 Alpha virt. eigenvalues --    0.59723   0.61075   0.61206   0.62428   0.63530
 Alpha virt. eigenvalues --    0.65408   0.66909   0.73057   0.74293   0.78070
 Alpha virt. eigenvalues --    0.80170   0.82332   0.86376   0.90227   0.92824
 Alpha virt. eigenvalues --    0.93093   0.93873   1.02061   1.05910   1.08121
 Alpha virt. eigenvalues --    1.10295   1.13302   1.22057   1.25975   1.28451
 Alpha virt. eigenvalues --    1.36326   1.40730   1.43221   1.47682   1.56881
 Alpha virt. eigenvalues --    1.65969   1.71823   1.72932   1.75782   1.82399
 Alpha virt. eigenvalues --    1.92076   1.92377   1.94997   1.96542   1.98822
 Alpha virt. eigenvalues --    2.00321   2.05350   2.09254   2.18750   2.22923
 Alpha virt. eigenvalues --    2.24312   2.28345   2.31424   2.32754   2.34587
 Alpha virt. eigenvalues --    2.37879   2.40771   2.43045   2.47929   2.48487
 Alpha virt. eigenvalues --    2.50651   2.53495   2.55260   2.57256   2.63792
 Alpha virt. eigenvalues --    2.71705   2.72631   2.73632   2.87144   2.94004
 Alpha virt. eigenvalues --    3.05858   3.06327   3.10911   3.19266   3.35244
 Alpha virt. eigenvalues --    3.47054   3.52103   3.81205   4.09590   4.14706
 Alpha virt. eigenvalues --    4.18311   4.41567   4.44095   4.75575
          Condensed to atoms (all electrons):
               1          2          3          4          5          6
     1  C    4.843912   0.524968  -0.027333  -0.033767  -0.039509   0.523883
     2  C    0.524968   4.861020   0.520729  -0.032622  -0.039741  -0.043361
     3  C   -0.027333   0.520729   4.892715   0.500127  -0.032650  -0.039931
     4  C   -0.033767  -0.032622   0.500127   4.818570   0.539067  -0.028574
     5  C   -0.039509  -0.039741  -0.032650   0.539067   4.835540   0.526558
     6  C    0.523883  -0.043361  -0.039931  -0.028574   0.526558   4.877712
     7  H    0.356588  -0.035195   0.003367   0.000358   0.004177  -0.037058
     8  H   -0.031116   0.003456   0.000229   0.003843  -0.036265   0.350995
     9  H    0.007471   0.000602   0.006698  -0.047245   0.368529  -0.049302
    10  H   -0.000042   0.003701  -0.040682   0.380319  -0.045273   0.005535
    11  H    0.003166  -0.030782   0.360533  -0.045695   0.004475   0.000408
    12  H   -0.039170   0.349383  -0.033537   0.003160   0.000126   0.004778
               7          8          9         10         11         12
     1  C    0.356588  -0.031116   0.007471  -0.000042   0.003166  -0.039170
     2  C   -0.035195   0.003456   0.000602   0.003701  -0.030782   0.349383
     3  C    0.003367   0.000229   0.006698  -0.040682   0.360533  -0.033537
     4  C    0.000358   0.003843  -0.047245   0.380319  -0.045695   0.003160
     5  C    0.004177  -0.036265   0.368529  -0.045273   0.004475   0.000126
     6  C   -0.037058   0.350995  -0.049302   0.005535   0.000408   0.004778
     7  H    0.626097  -0.003842  -0.000246   0.000013  -0.000077  -0.006306
     8  H   -0.003842   0.636034  -0.008079  -0.000170   0.000008  -0.000110
     9  H   -0.000246  -0.008079   0.653701  -0.008412  -0.000228   0.000004
    10  H    0.000013  -0.000170  -0.008412   0.613762  -0.003332  -0.000073
    11  H   -0.000077   0.000008  -0.000228  -0.003332   0.621560  -0.003812
    12  H   -0.006306  -0.000110   0.000004  -0.000073  -0.003812   0.651947
 Mulliken charges:
               1
     1  C   -0.089051
     2  C   -0.082158
     3  C   -0.110263
     4  C   -0.057542
     5  C   -0.085035
     6  C   -0.091642
     7  H    0.092125
     8  H    0.085018
     9  H    0.076507
    10  H    0.094655
    11  H    0.093776
    12  H    0.073611
 Sum of Mulliken charges =  -0.00000
 Mulliken charges with hydrogens summed into heavy atoms:
               1
     1  C    0.003075
     2  C   -0.008548
     3  C   -0.016487
     4  C    0.037112
     5  C   -0.008528
     6  C   -0.006624
 Electronic spatial extent (au):  <R**2>=            476.1520
 Charge=             -0.0000 electrons
 Dipole moment (field-independent basis, Debye):
    X=             -0.2529    Y=             -0.2934    Z=              0.1838  Tot=              0.4287
 Quadrupole moment (field-independent basis, Debye-Ang):
   XX=            -31.4315   YY=            -32.2507   ZZ=            -39.0129
   XY=              0.2237   XZ=              0.7703   YZ=             -0.3579
 Traceless Quadrupole moment (field-independent basis, Debye-Ang):
   XX=              2.8002   YY=              1.9810   ZZ=             -4.7812
   XY=              0.2237   XZ=              0.7703   YZ=             -0.3579
 Octapole moment (field-independent basis, Debye-Ang**2):
  XXX=             -3.4389  YYY=             -2.7929  ZZZ=              0.1857  XYY=             -0.0420
  XXY=             -0.5749  XXZ=              1.9348  XZZ=             -0.2292  YZZ=             -0.6178
  YYZ=             -0.1218  XYZ=             -0.2037
 Hexadecapole moment (field-independent basis, Debye-Ang**3):
 XXXX=           -297.0290 YYYY=           -278.2586 ZZZZ=            -41.8714 XXXY=              2.8816
 XXXZ=              5.2706 YYYX=             -0.5601 YYYZ=             -2.6767 ZZZX=              0.6521
 ZZZY=             -0.2083 XXYY=            -92.6235 XXZZ=            -65.4591 YYZZ=            -61.8354
 XXYZ=             -0.3772 YYXZ=              1.3779 ZZXY=              0.5919
 N-N= 1.988550614810D+02 E-N=-9.343807661959D+02  KE= 2.292695696941D+02
 1\1\GINC-DESKTOP-PRN5QE3\SP\RB3LYP TD-FC\6-31G(d,p)\C6H6\SHOHEI\10-Nov
 -2023\0\\# TD=(NStates=1) B3LYP/6-31G(d,p)\\EMISPCT\\0,1\C,0,0.3440084
 773,1.4091136579,0.0369335922\C,0,1.3029998146,0.4038968534,-0.0434473
 214\C,0,1.0158230762,-1.0213782057,0.0175656243\C,0,-0.3610878691,-1.4
 635339389,-0.0113638667\C,0,-1.2848619553,-0.3824936564,-0.0276272171\
 C,0,-0.9975681011,1.0326939711,0.0530488685\H,0,0.6348691016,2.4944634
 95,-0.310002861\H,0,-1.966868645,1.7193384891,-0.2085967721\H,0,-2.288
 103517,-0.5457795374,0.0299934995\H,0,-0.8240259927,-2.3707062629,-0.0
 22372707\H,0,1.7796296677,-1.8751482384,0.0599820462\H,0,2.4764455973,
 0.7948338196,0.1078205033\\Version=EM64L-G16RevB.01\State=1-A\HF=-232.
 1911315\RMSD=9.783e-09\PG=C01 [X(C6H6)]\\@


 THE GREAT THING ABOUT BEING IMPERFECT IS THE JOY IT BRINGS OTHERS.
   -- SIGN OUTSIDE LAKE AGASSIZ JR. HIGH SCHOOL, FARGO, N.D.
 Job cpu time:       0 days  0 hours  3 minutes  5.6 seconds.
 Elapsed time:       0 days  0 hours  0 minutes 47.0 seconds.
 File lengths (MBytes):  RWF=    116 Int=      0 D2E=      0 Chk=      3 Scr=      1
 Normal termination of Gaussian 16 at Fri Nov 10 22:33:47 2023.
