 Entering Gaussian System, Link 0=g16
 Input=Geometry-215-.com
 Output=Geometry-215-.log
 Initial command:
 /home/shohei/gaussian/g16/l1.exe "/home/shohei/gaussian/scratch/Gau-30693.inp" -scrdir="/home/shohei/gaussian/scratch/"
 Entering Link 1 = /home/shohei/gaussian/g16/l1.exe PID=     30695.
  
 Copyright (c) 1988-2017, Gaussian, Inc.  All Rights Reserved.
  
 This is part of the Gaussian(R) 16 program.  It is based on
 the Gaussian(R) 09 system (copyright 2009, Gaussian, Inc.),
 the Gaussian(R) 03 system (copyright 2003, Gaussian, Inc.),
 the Gaussian(R) 98 system (copyright 1998, Gaussian, Inc.),
 the Gaussian(R) 94 system (copyright 1995, Gaussian, Inc.),
 the Gaussian 92(TM) system (copyright 1992, Gaussian, Inc.),
 the Gaussian 90(TM) system (copyright 1990, Gaussian, Inc.),
 the Gaussian 88(TM) system (copyright 1988, Gaussian, Inc.),
 the Gaussian 86(TM) system (copyright 1986, Carnegie Mellon
 University), and the Gaussian 82(TM) system (copyright 1983,
 Carnegie Mellon University). Gaussian is a federally registered
 trademark of Gaussian, Inc.
  
 This software contains proprietary and confidential information,
 including trade secrets, belonging to Gaussian, Inc.
  
 This software is provided under written license and may be
 used, copied, transmitted, or stored only in accord with that
 written license.
  
 The following legend is applicable only to US Government
 contracts under FAR:
  
                    RESTRICTED RIGHTS LEGEND
  
 Use, reproduction and disclosure by the US Government is
 subject to restrictions as set forth in subparagraphs (a)
 and (c) of the Commercial Computer Software - Restricted
 Rights clause in FAR 52.227-19.
  
 Gaussian, Inc.
 340 Quinnipiac St., Bldg. 40, Wallingford CT 06492
  
  
 ---------------------------------------------------------------
 Warning -- This program may not be used in any manner that
 competes with the business of Gaussian, Inc. or will provide
 assistance to any competitor of Gaussian, Inc.  The licensee
 of this program is prohibited from giving any competitor of
 Gaussian, Inc. access to this program.  By using this program,
 the user acknowledges that Gaussian, Inc. is engaged in the
 business of creating and licensing software in the field of
 computational chemistry and represents and warrants to the
 licensee that it is not a competitor of Gaussian, Inc. and that
 it will not use this program in any manner prohibited above.
 ---------------------------------------------------------------
  

 Cite this work as:
 Gaussian 16, Revision B.01,
 M. J. Frisch, G. W. Trucks, H. B. Schlegel, G. E. Scuseria, 
 M. A. Robb, J. R. Cheeseman, G. Scalmani, V. Barone, 
 G. A. Petersson, H. Nakatsuji, X. Li, M. Caricato, A. V. Marenich, 
 J. Bloino, B. G. Janesko, R. Gomperts, B. Mennucci, H. P. Hratchian, 
 J. V. Ortiz, A. F. Izmaylov, J. L. Sonnenberg, D. Williams-Young, 
 F. Ding, F. Lipparini, F. Egidi, J. Goings, B. Peng, A. Petrone, 
 T. Henderson, D. Ranasinghe, V. G. Zakrzewski, J. Gao, N. Rega, 
 G. Zheng, W. Liang, M. Hada, M. Ehara, K. Toyota, R. Fukuda, 
 J. Hasegawa, M. Ishida, T. Nakajima, Y. Honda, O. Kitao, H. Nakai, 
 T. Vreven, K. Throssell, J. A. Montgomery, Jr., J. E. Peralta, 
 F. Ogliaro, M. J. Bearpark, J. J. Heyd, E. N. Brothers, K. N. Kudin, 
 V. N. Staroverov, T. A. Keith, R. Kobayashi, J. Normand, 
 K. Raghavachari, A. P. Rendell, J. C. Burant, S. S. Iyengar, 
 J. Tomasi, M. Cossi, J. M. Millam, M. Klene, C. Adamo, R. Cammi, 
 J. W. Ochterski, R. L. Martin, K. Morokuma, O. Farkas, 
 J. B. Foresman, and D. J. Fox, Gaussian, Inc., Wallingford CT, 2016.
 
 ******************************************
 Gaussian 16:  EM64L-G16RevB.01 20-Dec-2017
                10-Nov-2023 
 ******************************************
 %nproc=4
 Will use up to    4 processors via shared memory.
 %Mem=2Gb
 ---------------------------------
 # TD=(NStates=1) B3LYP/6-31G(d,p)
 ---------------------------------
 1/38=1,172=1/1;
 2/12=2,17=6,18=5,40=1/2;
 3/5=1,6=6,7=101,11=9,25=1,30=1,74=-5/1,2,3,8;
 4//1;
 5/5=2,38=5/2;
 8/6=1,10=2,108=1/1;
 9/41=1,42=1,70=2/14;
 6/7=2,8=2,9=2,10=2/1;
 99/5=1,9=1/99;
 -------
 EMISPCT
 -------
 Symbolic Z-matrix:
 Charge =  0 Multiplicity = 1
 6                     0.31292   1.38418  -0.16179 
 6                     1.36059   0.40524   0.15269 
 6                     1.00156  -0.9743   -0.00556 
 6                    -0.35754  -1.39445  -0.07489 
 6                    -1.35035  -0.37072   0.05336 
 6                    -1.        0.98024   0.07455 
 1                     0.58212   2.23717  -0.18932 
 1                    -1.56183   1.75452  -0.08169 
 1                    -2.32138  -0.68353   0.04315 
 1                    -0.51904  -2.34579  -0.12469 
 1                     1.6916   -1.76688  -0.1976 
 1                     2.51866   0.49266   0.02603 
 
                          Input orientation:                          
 ---------------------------------------------------------------------
 Center     Atomic      Atomic             Coordinates (Angstroms)
 Number     Number       Type             X           Y           Z
 ---------------------------------------------------------------------
      1          6           0        0.312922    1.384185   -0.161788
      2          6           0        1.360590    0.405241    0.152685
      3          6           0        1.001561   -0.974297   -0.005561
      4          6           0       -0.357544   -1.394452   -0.074893
      5          6           0       -1.350349   -0.370722    0.053360
      6          6           0       -0.999999    0.980242    0.074546
      7          1           0        0.582124    2.237168   -0.189317
      8          1           0       -1.561829    1.754515   -0.081694
      9          1           0       -2.321376   -0.683526    0.043147
     10          1           0       -0.519037   -2.345788   -0.124695
     11          1           0        1.691605   -1.766876   -0.197602
     12          1           0        2.518664    0.492659    0.026030
 ---------------------------------------------------------------------
                    Distance matrix (angstroms):
                    1          2          3          4          5
     1  C    0.000000
     2  C    1.467935   0.000000
     3  C    2.461924   1.434248   0.000000
     4  C    2.859703   2.498534   1.424256   0.000000
     5  C    2.427438   2.821554   2.428838   1.431828   0.000000
     6  C    1.393838   2.430866   2.798729   2.464600   1.395815
     7  H    0.894878   2.019637   3.243948   3.752963   3.254909
     8  H    1.912655   3.227384   3.744754   3.371401   2.139999
     9  H    3.355138   3.841130   3.335990   2.091885   1.020218
    10  H    3.821810   3.343366   2.051195   0.966230   2.150272
    11  H    3.439656   2.224941   1.068279   2.086329   3.356442
    12  H    2.386503   1.168255   2.110583   3.441504   3.964269
                    6          7          8          9         10
     6  C    0.000000
     7  H    2.037792   0.000000
     8  H    0.969311   2.200243   0.000000
     9  H    2.124888   4.124900   2.556667   0.000000
    10  H    3.366526   4.713832   4.231046   2.457582   0.000000
    11  H    3.855574   4.154922   4.795671   4.163607   2.286349
    12  H    3.552616   2.615315   4.272506   4.980933   4.160183
                   11         12
    11  H    0.000000
    12  H    2.416513   0.000000
 Stoichiometry    C6H6
 Framework group  C1[X(C6H6)]
 Deg. of freedom    30
 Full point group                 C1      NOp   1
 Largest Abelian subgroup         C1      NOp   1
 Largest concise Abelian subgroup C1      NOp   1
                         Standard orientation:                         
 ---------------------------------------------------------------------
 Center     Atomic      Atomic             Coordinates (Angstroms)
 Number     Number       Type             X           Y           Z
 ---------------------------------------------------------------------
      1          6           0        1.267690    0.642088    0.155875
      2          6           0        0.060543    1.414624   -0.161647
      3          6           0       -1.187587    0.725778   -0.004388
      4          6           0       -1.258651   -0.694917    0.066896
      5          6           0       -0.020974   -1.403860   -0.058353
      6          6           0        1.201398   -0.730291   -0.078570
      7          1           0        2.027545    1.113936    0.183930
      8          1           0        2.090322   -1.082935    0.079601
      9          1           0       -0.083913   -2.422069   -0.046760
     10          1           0       -2.140567   -1.086615    0.115862
     11          1           0       -2.126514    1.198631    0.185468
     12          1           0       -0.141382    2.558522   -0.036976
 ---------------------------------------------------------------------
 Rotational constants (GHZ):           5.6477624           5.5362635           2.8226675
 Standard basis: 6-31G(d,p) (6D, 7F)
 There are   120 symmetry adapted cartesian basis functions of A   symmetry.
 There are   120 symmetry adapted basis functions of A   symmetry.
   120 basis functions,   210 primitive gaussians,   120 cartesian basis functions
    21 alpha electrons       21 beta electrons
       nuclear repulsion energy       202.8379625214 Hartrees.
 NAtoms=   12 NActive=   12 NUniq=   12 SFac= 1.00D+00 NAtFMM=   60 NAOKFM=F Big=F
 Integral buffers will be    131072 words long.
 Regular integral format.
 Two-electron integral symmetry is turned on.
 One-electron integrals computed using PRISM.
 NBasis=   120 RedAO= T EigKep=  1.29D-03  NBF=   120
 NBsUse=   120 1.00D-06 EigRej= -1.00D+00 NBFU=   120
 ExpMin= 1.61D-01 ExpMax= 3.05D+03 ExpMxC= 4.57D+02 IAcc=3 IRadAn=         5 AccDes= 0.00D+00
 Harris functional with IExCor=  402 and IRadAn=       5 diagonalized for initial guess.
 HarFok:  IExCor=  402 AccDes= 0.00D+00 IRadAn=         5 IDoV= 1 UseB2=F ITyADJ=14
 ICtDFT=  3500011 ScaDFX=  1.000000  1.000000  1.000000  1.000000
 FoFCou: FMM=F IPFlag=           0 FMFlag=      100000 FMFlg1=           0
         NFxFlg=           0 DoJE=T BraDBF=F KetDBF=T FulRan=T
         wScrn=  0.000000 ICntrl=       500 IOpCl=  0 I1Cent=   200000004 NGrid=           0
         NMat0=    1 NMatS0=      1 NMatT0=    0 NMatD0=    1 NMtDS0=    0 NMtDT0=    0
 Petite list used in FoFCou.
 Keep R1 ints in memory in canonical form, NReq=30147728.
 Requested convergence on RMS density matrix=1.00D-08 within 128 cycles.
 Requested convergence on MAX density matrix=1.00D-06.
 Requested convergence on             energy=1.00D-06.
 No special actions if energy rises.
 Integral accuracy reduced to 1.0D-05 until final iterations.
 Initial convergence to 1.0D-05 achieved.  Increase integral accuracy.
 SCF Done:  E(RB3LYP) =  -232.154882855     A.U. after   14 cycles
            NFock= 14  Conv=0.34D-08     -V/T= 2.0077
 DoSCS=F DFT=T ScalE2(SS,OS)=  1.000000  1.000000
 ExpMin= 1.61D-01 ExpMax= 3.05D+03 ExpMxC= 4.57D+02 IAcc=3 IRadAn=         5 AccDes= 0.00D+00
 HarFok:  IExCor=  205 AccDes= 0.00D+00 IRadAn=         5 IDoV=-2 UseB2=F ITyADJ=14
 ICtDFT= 12500011 ScaDFX=  1.000000  1.000000  1.000000  1.000000
 Range of M.O.s used for correlation:     7   120
 NBasis=   120 NAE=    21 NBE=    21 NFC=     6 NFV=     0
 NROrb=    114 NOA=    15 NOB=    15 NVA=    99 NVB=    99
 Keep R1, R2, and R3 ints in memory in canonical form, NReq=84032236.
 Orbital symmetries:
       Occupied  (A) (A) (A) (A) (A) (A) (A) (A) (A) (A) (A) (A)
                 (A) (A) (A) (A) (A) (A) (A) (A) (A)
       Virtual   (A) (A) (A) (A) (A) (A) (A) (A) (A) (A) (A) (A)
                 (A) (A) (A) (A) (A) (A) (A) (A) (A) (A) (A) (A)
                 (A) (A) (A) (A) (A) (A) (A) (A) (A) (A) (A) (A)
                 (A) (A) (A) (A) (A) (A) (A) (A) (A) (A) (A) (A)
                 (A) (A) (A) (A) (A) (A) (A) (A) (A) (A) (A) (A)
                 (A) (A) (A) (A) (A) (A) (A) (A) (A) (A) (A) (A)
                 (A) (A) (A) (A) (A) (A) (A) (A) (A) (A) (A) (A)
                 (A) (A) (A) (A) (A) (A) (A) (A) (A) (A) (A) (A)
                 (A) (A) (A)
     4 initial guesses have been made.
 Convergence on wavefunction:    0.001000000000000
 Iteration     1 Dimension     4 NMult     0 NNew      4
 CISAX will form     4 AO SS matrices at one time.
 New state      1 was old state      2
 Iteration     2 Dimension     6 NMult     4 NNew      2
 Iteration     3 Dimension     8 NMult     6 NNew      2
 Iteration     4 Dimension    10 NMult     8 NNew      2
 Iteration     5 Dimension    12 NMult    10 NNew      2
 ***********************************************************************
 Excited states from <AA,BB:AA,BB> singles matrix:
 ***********************************************************************
 
 Ground to excited state transition densities written to RWF  633
 Ground to excited state transition electric dipole moments (Au):
       state          X           Y           Z        Dip. S.      Osc.
         1        -0.0677     -0.0979      0.0077      0.0142      0.0018
 Ground to excited state transition velocity dipole moments (Au):
       state          X           Y           Z        Dip. S.      Osc.
         1         0.0116      0.0208     -0.0028      0.0006      0.0021
 Ground to excited state transition magnetic dipole moments (Au):
       state          X           Y           Z
         1        -0.0278      0.0209      0.1019
 Ground to excited state transition velocity quadrupole moments (Au):
       state          XX          YY          ZZ          XY          XZ          YZ
         1        -0.0175      0.0276     -0.0006     -0.0028      0.0265     -0.0245
 <0|del|b> * <b|rxdel|0> + <0|del|b> * <b|delr+rdel|0>
 Rotatory Strengths (R) in cgs (10**-40 erg-esu-cm/Gauss)
       state          XX          YY          ZZ    R(velocity)    E-M Angle
         1        -0.7474     -1.7055      1.7965     -0.2188       93.84
 1/2[<0|r|b>*<b|rxdel|0> + (<0|rxdel|b>*<b|r|0>)*]
 Rotatory Strengths (R) in cgs (10**-40 erg-esu-cm/Gauss)
       state          XX          YY          ZZ     R(length)
         1        -1.3307      1.4458     -0.5538     -0.1462
  1/2[<0|del|b>*<b|r|0> + (<0|r|b>*<b|del|0>)*] (Au)
       state          X           Y           Z        Dip. S.   Osc.(frdel)
         1        -0.0008     -0.0020     -0.0000      0.0028      0.0019

 Excitation energies and oscillator strengths:
 
 Excited State   1:      Singlet-A      5.0669 eV  244.69 nm  f=0.0018  <S**2>=0.000
      20 -> 22         0.52718
      21 -> 22         0.11658
      21 -> 23         0.44682
 This state for optimization and/or second-order correction.
 Total Energy, E(TD-HF/TD-DFT) =  -231.968677086    
 Copying the excited state density for this state as the 1-particle RhoCI density.
 SavETr:  write IOETrn=   770 NScale= 10 NData=  16 NLR=1 NState=    1 LETran=      28.

 **********************************************************************

            Population analysis using the SCF Density.

 **********************************************************************

 Orbital symmetries:
       Occupied  (A) (A) (A) (A) (A) (A) (A) (A) (A) (A) (A) (A)
                 (A) (A) (A) (A) (A) (A) (A) (A) (A)
       Virtual   (A) (A) (A) (A) (A) (A) (A) (A) (A) (A) (A) (A)
                 (A) (A) (A) (A) (A) (A) (A) (A) (A) (A) (A) (A)
                 (A) (A) (A) (A) (A) (A) (A) (A) (A) (A) (A) (A)
                 (A) (A) (A) (A) (A) (A) (A) (A) (A) (A) (A) (A)
                 (A) (A) (A) (A) (A) (A) (A) (A) (A) (A) (A) (A)
                 (A) (A) (A) (A) (A) (A) (A) (A) (A) (A) (A) (A)
                 (A) (A) (A) (A) (A) (A) (A) (A) (A) (A) (A) (A)
                 (A) (A) (A) (A) (A) (A) (A) (A) (A) (A) (A) (A)
                 (A) (A) (A)
 The electronic state is 1-A.
 Alpha  occ. eigenvalues --  -10.20173 -10.18822 -10.18796 -10.17943 -10.17873
 Alpha  occ. eigenvalues --  -10.17767  -0.83981  -0.75196  -0.73245  -0.61801
 Alpha  occ. eigenvalues --   -0.60194  -0.52423  -0.48850  -0.43972  -0.41949
 Alpha  occ. eigenvalues --   -0.40689  -0.35682  -0.34874  -0.32555  -0.24443
 Alpha  occ. eigenvalues --   -0.23950
 Alpha virt. eigenvalues --   -0.01695  -0.00232   0.10592   0.12841   0.14957
 Alpha virt. eigenvalues --    0.16513   0.17833   0.20489   0.21324   0.28656
 Alpha virt. eigenvalues --    0.28818   0.30414   0.31198   0.45466   0.48145
 Alpha virt. eigenvalues --    0.50199   0.53068   0.54887   0.58989   0.59506
 Alpha virt. eigenvalues --    0.60135   0.60611   0.61873   0.63217   0.64362
 Alpha virt. eigenvalues --    0.66074   0.67708   0.72461   0.75958   0.83284
 Alpha virt. eigenvalues --    0.84890   0.87142   0.88648   0.91508   0.92783
 Alpha virt. eigenvalues --    0.95829   0.98695   1.03611   1.04774   1.07689
 Alpha virt. eigenvalues --    1.10715   1.14690   1.20106   1.30908   1.32655
 Alpha virt. eigenvalues --    1.36415   1.40297   1.43471   1.50213   1.58632
 Alpha virt. eigenvalues --    1.71710   1.73039   1.75776   1.84033   1.90266
 Alpha virt. eigenvalues --    1.91581   1.95727   1.97822   2.00053   2.02468
 Alpha virt. eigenvalues --    2.03924   2.08194   2.10764   2.18284   2.25804
 Alpha virt. eigenvalues --    2.31871   2.35580   2.38312   2.40513   2.43959
 Alpha virt. eigenvalues --    2.45350   2.47894   2.49420   2.52493   2.53696
 Alpha virt. eigenvalues --    2.55891   2.57329   2.60009   2.70100   2.72874
 Alpha virt. eigenvalues --    2.83553   2.85524   2.87412   3.01453   3.06933
 Alpha virt. eigenvalues --    3.16627   3.30597   3.40914   3.48667   3.49806
 Alpha virt. eigenvalues --    3.74741   3.92632   4.11120   4.14750   4.15850
 Alpha virt. eigenvalues --    4.17293   4.43165   4.46012   4.79704
          Condensed to atoms (all electrons):
               1          2          3          4          5          6
     1  C    4.791194   0.516291  -0.030088  -0.031153  -0.028806   0.542394
     2  C    0.516291   4.924037   0.507268  -0.034559  -0.047688  -0.024971
     3  C   -0.030088   0.507268   4.869213   0.532018  -0.019906  -0.050363
     4  C   -0.031153  -0.034559   0.532018   4.776837   0.537056  -0.025213
     5  C   -0.028806  -0.047688  -0.019906   0.537056   4.831108   0.513485
     6  C    0.542394  -0.024971  -0.050363  -0.025213   0.513485   4.813920
     7  H    0.377157  -0.054282   0.006263   0.000922   0.008037  -0.046585
     8  H   -0.061883   0.006811   0.000352   0.004656  -0.046165   0.389307
     9  H    0.005694   0.000378   0.006720  -0.051498   0.380031  -0.051867
    10  H   -0.000036   0.007700  -0.052738   0.381477  -0.049546   0.006536
    11  H    0.003879  -0.042881   0.368796  -0.044716   0.005766   0.000739
    12  H   -0.031883   0.353480  -0.045483   0.004670   0.000541   0.003485
               7          8          9         10         11         12
     1  C    0.377157  -0.061883   0.005694  -0.000036   0.003879  -0.031883
     2  C   -0.054282   0.006811   0.000378   0.007700  -0.042881   0.353480
     3  C    0.006263   0.000352   0.006720  -0.052738   0.368796  -0.045483
     4  C    0.000922   0.004656  -0.051498   0.381477  -0.044716   0.004670
     5  C    0.008037  -0.046165   0.380031  -0.049546   0.005766   0.000541
     6  C   -0.046585   0.389307  -0.051867   0.006536   0.000739   0.003485
     7  H    0.660217  -0.012133  -0.000241   0.000009  -0.000263  -0.003300
     8  H   -0.012133   0.645777  -0.006629  -0.000156   0.000024  -0.000228
     9  H   -0.000241  -0.006629   0.643431  -0.006948  -0.000297   0.000013
    10  H    0.000009  -0.000156  -0.006948   0.651410  -0.008770  -0.000247
    11  H   -0.000263   0.000024  -0.000297  -0.008770   0.639765  -0.006791
    12  H   -0.003300  -0.000228   0.000013  -0.000247  -0.006791   0.645804
 Mulliken charges:
               1
     1  C   -0.052761
     2  C   -0.111584
     3  C   -0.092052
     4  C   -0.050497
     5  C   -0.083914
     6  C   -0.070866
     7  H    0.064198
     8  H    0.080268
     9  H    0.081213
    10  H    0.071308
    11  H    0.084748
    12  H    0.079938
 Sum of Mulliken charges =  -0.00000
 Mulliken charges with hydrogens summed into heavy atoms:
               1
     1  C    0.011438
     2  C   -0.031646
     3  C   -0.007304
     4  C    0.020812
     5  C   -0.002701
     6  C    0.009402
 Electronic spatial extent (au):  <R**2>=            458.6790
 Charge=             -0.0000 electrons
 Dipole moment (field-independent basis, Debye):
    X=             -0.0722    Y=             -0.1144    Z=              0.3439  Tot=              0.3695
 Quadrupole moment (field-independent basis, Debye-Ang):
   XX=            -30.7040   YY=            -32.1739   ZZ=            -38.2381
   XY=              0.1199   XZ=             -0.0364   YZ=              0.2695
 Traceless Quadrupole moment (field-independent basis, Debye-Ang):
   XX=              3.0013   YY=              1.5314   ZZ=             -4.5328
   XY=              0.1199   XZ=             -0.0364   YZ=              0.2695
 Octapole moment (field-independent basis, Debye-Ang**2):
  XXX=              0.3441  YYY=             -1.1488  ZZZ=              0.6500  XYY=             -1.0963
  XXY=             -0.2454  XXZ=              2.1176  XZZ=              0.3755  YZZ=             -0.5368
  YYZ=              0.8070  XYZ=             -0.0572
 Hexadecapole moment (field-independent basis, Debye-Ang**3):
 XXXX=           -262.4828 YYYY=           -272.4485 ZZZZ=            -42.2692 XXXY=              2.1192
 XXXZ=             -0.3177 YYYX=              0.0821 YYYZ=              1.3395 ZZZX=              0.1020
 ZZZY=              0.4475 XXYY=            -91.9666 XXZZ=            -58.8942 YYZZ=            -60.3234
 XXYZ=              0.7222 YYXZ=              0.0070 ZZXY=              0.3016
 N-N= 2.028379625214D+02 E-N=-9.431657195659D+02  KE= 2.303744098760D+02
 1\1\GINC-DESKTOP-PRN5QE3\SP\RB3LYP TD-FC\6-31G(d,p)\C6H6\SHOHEI\10-Nov
 -2023\0\\# TD=(NStates=1) B3LYP/6-31G(d,p)\\EMISPCT\\0,1\C,0,0.3129215
 536,1.3841849115,-0.1617877088\C,0,1.3605896648,0.4052405908,0.1526853
 91\C,0,1.0015612726,-0.9742971303,-0.0055610246\C,0,-0.357544206,-1.39
 4452223,-0.0748928051\C,0,-1.350348529,-0.3707221694,0.053359901\C,0,-
 0.9999987148,0.9802421254,0.0745464834\H,0,0.5821236498,2.2371677114,-
 0.1893171767\H,0,-1.5618288645,1.7545152684,-0.0816942837\H,0,-2.32137
 59501,-0.6835263467,0.0431474484\H,0,-0.5190369167,-2.3457881311,-0.12
 46949127\H,0,1.6916047685,-1.7668755505,-0.197601538\H,0,2.5186640606,
 0.4926587919,0.0260298914\\Version=EM64L-G16RevB.01\State=1-A\HF=-232.
 1548829\RMSD=3.404e-09\PG=C01 [X(C6H6)]\\@


 IN THE UNIVERSE THE DIFFICULT THINGS ARE DONE AS IF THEY WERE EASY.

                                                          -- LAO-TSU
 Job cpu time:       0 days  0 hours  3 minutes 16.9 seconds.
 Elapsed time:       0 days  0 hours  0 minutes 49.7 seconds.
 File lengths (MBytes):  RWF=    116 Int=      0 D2E=      0 Chk=      3 Scr=      1
 Normal termination of Gaussian 16 at Fri Nov 10 22:30:44 2023.
