 Entering Gaussian System, Link 0=g16
 Input=Geometry-113-.com
 Output=Geometry-113-.log
 Initial command:
 /home/shohei/gaussian/g16/l1.exe "/home/shohei/gaussian/scratch/Gau-22021.inp" -scrdir="/home/shohei/gaussian/scratch/"
 Entering Link 1 = /home/shohei/gaussian/g16/l1.exe PID=     22023.
  
 Copyright (c) 1988-2017, Gaussian, Inc.  All Rights Reserved.
  
 This is part of the Gaussian(R) 16 program.  It is based on
 the Gaussian(R) 09 system (copyright 2009, Gaussian, Inc.),
 the Gaussian(R) 03 system (copyright 2003, Gaussian, Inc.),
 the Gaussian(R) 98 system (copyright 1998, Gaussian, Inc.),
 the Gaussian(R) 94 system (copyright 1995, Gaussian, Inc.),
 the Gaussian 92(TM) system (copyright 1992, Gaussian, Inc.),
 the Gaussian 90(TM) system (copyright 1990, Gaussian, Inc.),
 the Gaussian 88(TM) system (copyright 1988, Gaussian, Inc.),
 the Gaussian 86(TM) system (copyright 1986, Carnegie Mellon
 University), and the Gaussian 82(TM) system (copyright 1983,
 Carnegie Mellon University). Gaussian is a federally registered
 trademark of Gaussian, Inc.
  
 This software contains proprietary and confidential information,
 including trade secrets, belonging to Gaussian, Inc.
  
 This software is provided under written license and may be
 used, copied, transmitted, or stored only in accord with that
 written license.
  
 The following legend is applicable only to US Government
 contracts under FAR:
  
                    RESTRICTED RIGHTS LEGEND
  
 Use, reproduction and disclosure by the US Government is
 subject to restrictions as set forth in subparagraphs (a)
 and (c) of the Commercial Computer Software - Restricted
 Rights clause in FAR 52.227-19.
  
 Gaussian, Inc.
 340 Quinnipiac St., Bldg. 40, Wallingford CT 06492
  
  
 ---------------------------------------------------------------
 Warning -- This program may not be used in any manner that
 competes with the business of Gaussian, Inc. or will provide
 assistance to any competitor of Gaussian, Inc.  The licensee
 of this program is prohibited from giving any competitor of
 Gaussian, Inc. access to this program.  By using this program,
 the user acknowledges that Gaussian, Inc. is engaged in the
 business of creating and licensing software in the field of
 computational chemistry and represents and warrants to the
 licensee that it is not a competitor of Gaussian, Inc. and that
 it will not use this program in any manner prohibited above.
 ---------------------------------------------------------------
  

 Cite this work as:
 Gaussian 16, Revision B.01,
 M. J. Frisch, G. W. Trucks, H. B. Schlegel, G. E. Scuseria, 
 M. A. Robb, J. R. Cheeseman, G. Scalmani, V. Barone, 
 G. A. Petersson, H. Nakatsuji, X. Li, M. Caricato, A. V. Marenich, 
 J. Bloino, B. G. Janesko, R. Gomperts, B. Mennucci, H. P. Hratchian, 
 J. V. Ortiz, A. F. Izmaylov, J. L. Sonnenberg, D. Williams-Young, 
 F. Ding, F. Lipparini, F. Egidi, J. Goings, B. Peng, A. Petrone, 
 T. Henderson, D. Ranasinghe, V. G. Zakrzewski, J. Gao, N. Rega, 
 G. Zheng, W. Liang, M. Hada, M. Ehara, K. Toyota, R. Fukuda, 
 J. Hasegawa, M. Ishida, T. Nakajima, Y. Honda, O. Kitao, H. Nakai, 
 T. Vreven, K. Throssell, J. A. Montgomery, Jr., J. E. Peralta, 
 F. Ogliaro, M. J. Bearpark, J. J. Heyd, E. N. Brothers, K. N. Kudin, 
 V. N. Staroverov, T. A. Keith, R. Kobayashi, J. Normand, 
 K. Raghavachari, A. P. Rendell, J. C. Burant, S. S. Iyengar, 
 J. Tomasi, M. Cossi, J. M. Millam, M. Klene, C. Adamo, R. Cammi, 
 J. W. Ochterski, R. L. Martin, K. Morokuma, O. Farkas, 
 J. B. Foresman, and D. J. Fox, Gaussian, Inc., Wallingford CT, 2016.
 
 ******************************************
 Gaussian 16:  EM64L-G16RevB.01 20-Dec-2017
                10-Nov-2023 
 ******************************************
 %nproc=4
 Will use up to    4 processors via shared memory.
 %Mem=2Gb
 ---------------------------------
 # TD=(NStates=1) B3LYP/6-31G(d,p)
 ---------------------------------
 1/38=1,172=1/1;
 2/12=2,17=6,18=5,40=1/2;
 3/5=1,6=6,7=101,11=9,25=1,30=1,74=-5/1,2,3,8;
 4//1;
 5/5=2,38=5/2;
 8/6=1,10=2,108=1/1;
 9/41=1,42=1,70=2/14;
 6/7=2,8=2,9=2,10=2/1;
 99/5=1,9=1/99;
 -------
 EMISPCT
 -------
 Symbolic Z-matrix:
 Charge =  0 Multiplicity = 1
 6                     0.34327   1.41708   0.02115 
 6                     1.45215   0.35087   0.00094 
 6                     1.01998  -1.03525   0.0324 
 6                    -0.31756  -1.35695  -0.05728 
 6                    -1.3924   -0.37837   0.06484 
 6                    -1.08249   0.98528  -0.07399 
 1                     0.70188   2.45885  -0.10276 
 1                    -1.91627   1.81526   0.06529 
 1                    -2.63208  -0.78674   0.30323 
 1                    -0.59176  -2.31786  -0.17874 
 1                     1.6441   -1.7888   -0.05485 
 1                     2.48562   0.78269   0.13099 
 
                          Input orientation:                          
 ---------------------------------------------------------------------
 Center     Atomic      Atomic             Coordinates (Angstroms)
 Number     Number       Type             X           Y           Z
 ---------------------------------------------------------------------
      1          6           0        0.343270    1.417079    0.021146
      2          6           0        1.452155    0.350867    0.000940
      3          6           0        1.019983   -1.035249    0.032404
      4          6           0       -0.317563   -1.356948   -0.057284
      5          6           0       -1.392399   -0.378368    0.064843
      6          6           0       -1.082489    0.985283   -0.073988
      7          1           0        0.701882    2.458847   -0.102763
      8          1           0       -1.916273    1.815265    0.065294
      9          1           0       -2.632083   -0.786744    0.303230
     10          1           0       -0.591758   -2.317857   -0.178743
     11          1           0        1.644099   -1.788799   -0.054848
     12          1           0        2.485621    0.782694    0.130987
 ---------------------------------------------------------------------
                    Distance matrix (angstroms):
                    1          2          3          4          5
     1  C    0.000000
     2  C    1.538455   0.000000
     3  C    2.544009   1.452267   0.000000
     4  C    2.852732   2.460065   1.378609   0.000000
     5  C    2.497616   2.937236   2.500427   1.458700   0.000000
     6  C    1.492744   2.613908   2.917920   2.464028   1.405298
     7  H    1.108709   2.239920   3.511148   3.949889   3.530424
     8  H    2.294785   3.673542   4.092446   3.554411   2.255320
     9  H    3.713372   4.250475   3.670516   2.410831   1.326807
    10  H    3.855384   3.366296   2.070598   1.006619   2.112340
    11  H    3.460577   2.148983   0.982330   2.008636   3.350218
    12  H    2.237002   1.127581   2.337248   3.531480   4.048639
                    6          7          8          9         10
     6  C    0.000000
     7  H    2.314346   0.000000
     8  H    1.184680   2.701329   0.000000
     9  H    2.384034   4.670548   2.709141   0.000000
    10  H    3.341037   4.949361   4.347021   2.596061   0.000000
    11  H    3.889753   4.351157   5.067540   4.406594   2.300936
    12  H    3.579729   2.458831   4.521857   5.355716   4.379453
                   11         12
    11  H    0.000000
    12  H    2.712060   0.000000
 Stoichiometry    C6H6
 Framework group  C1[X(C6H6)]
 Deg. of freedom    30
 Full point group                 C1      NOp   1
 Largest Abelian subgroup         C1      NOp   1
 Largest concise Abelian subgroup C1      NOp   1
                         Standard orientation:                         
 ---------------------------------------------------------------------
 Center     Atomic      Atomic             Coordinates (Angstroms)
 Number     Number       Type             X           Y           Z
 ---------------------------------------------------------------------
      1          6           0        0.202103    1.443580    0.018463
      2          6           0        1.413339    0.495098    0.006894
      3          6           0        1.123534   -0.927612    0.038296
      4          6           0       -0.173990   -1.383194   -0.058859
      5          6           0       -1.343111   -0.518324    0.054994
      6          6           0       -1.171998    0.869529   -0.084469
      7          1           0        0.454162    2.516152   -0.105194
      8          1           0       -2.086372    1.610992    0.048265
      9          1           0       -2.536530   -1.049830    0.286655
     10          1           0       -0.348737   -2.367075   -0.180205
     11          1           0        1.821261   -1.614204   -0.043811
     12          1           0        2.396953    1.029503    0.142374
 ---------------------------------------------------------------------
 Rotational constants (GHZ):           5.4225889           5.1107691           2.6402017
 Standard basis: 6-31G(d,p) (6D, 7F)
 There are   120 symmetry adapted cartesian basis functions of A   symmetry.
 There are   120 symmetry adapted basis functions of A   symmetry.
   120 basis functions,   210 primitive gaussians,   120 cartesian basis functions
    21 alpha electrons       21 beta electrons
       nuclear repulsion energy       195.9653914120 Hartrees.
 NAtoms=   12 NActive=   12 NUniq=   12 SFac= 1.00D+00 NAtFMM=   60 NAOKFM=F Big=F
 Integral buffers will be    131072 words long.
 Regular integral format.
 Two-electron integral symmetry is turned on.
 One-electron integrals computed using PRISM.
 NBasis=   120 RedAO= T EigKep=  1.26D-03  NBF=   120
 NBsUse=   120 1.00D-06 EigRej= -1.00D+00 NBFU=   120
 ExpMin= 1.61D-01 ExpMax= 3.05D+03 ExpMxC= 4.57D+02 IAcc=3 IRadAn=         5 AccDes= 0.00D+00
 Harris functional with IExCor=  402 and IRadAn=       5 diagonalized for initial guess.
 HarFok:  IExCor=  402 AccDes= 0.00D+00 IRadAn=         5 IDoV= 1 UseB2=F ITyADJ=14
 ICtDFT=  3500011 ScaDFX=  1.000000  1.000000  1.000000  1.000000
 FoFCou: FMM=F IPFlag=           0 FMFlag=      100000 FMFlg1=           0
         NFxFlg=           0 DoJE=T BraDBF=F KetDBF=T FulRan=T
         wScrn=  0.000000 ICntrl=       500 IOpCl=  0 I1Cent=   200000004 NGrid=           0
         NMat0=    1 NMatS0=      1 NMatT0=    0 NMatD0=    1 NMtDS0=    0 NMtDT0=    0
 Petite list used in FoFCou.
 Keep R1 ints in memory in canonical form, NReq=30147728.
 Requested convergence on RMS density matrix=1.00D-08 within 128 cycles.
 Requested convergence on MAX density matrix=1.00D-06.
 Requested convergence on             energy=1.00D-06.
 No special actions if energy rises.
 Integral accuracy reduced to 1.0D-05 until final iterations.
 Initial convergence to 1.0D-05 achieved.  Increase integral accuracy.
 SCF Done:  E(RB3LYP) =  -232.174913349     A.U. after   14 cycles
            NFock= 14  Conv=0.63D-08     -V/T= 2.0135
 DoSCS=F DFT=T ScalE2(SS,OS)=  1.000000  1.000000
 ExpMin= 1.61D-01 ExpMax= 3.05D+03 ExpMxC= 4.57D+02 IAcc=3 IRadAn=         5 AccDes= 0.00D+00
 HarFok:  IExCor=  205 AccDes= 0.00D+00 IRadAn=         5 IDoV=-2 UseB2=F ITyADJ=14
 ICtDFT= 12500011 ScaDFX=  1.000000  1.000000  1.000000  1.000000
 Range of M.O.s used for correlation:     7   120
 NBasis=   120 NAE=    21 NBE=    21 NFC=     6 NFV=     0
 NROrb=    114 NOA=    15 NOB=    15 NVA=    99 NVB=    99
 Keep R1, R2, and R3 ints in memory in canonical form, NReq=84032236.
 Orbital symmetries:
       Occupied  (A) (A) (A) (A) (A) (A) (A) (A) (A) (A) (A) (A)
                 (A) (A) (A) (A) (A) (A) (A) (A) (A)
       Virtual   (A) (A) (A) (A) (A) (A) (A) (A) (A) (A) (A) (A)
                 (A) (A) (A) (A) (A) (A) (A) (A) (A) (A) (A) (A)
                 (A) (A) (A) (A) (A) (A) (A) (A) (A) (A) (A) (A)
                 (A) (A) (A) (A) (A) (A) (A) (A) (A) (A) (A) (A)
                 (A) (A) (A) (A) (A) (A) (A) (A) (A) (A) (A) (A)
                 (A) (A) (A) (A) (A) (A) (A) (A) (A) (A) (A) (A)
                 (A) (A) (A) (A) (A) (A) (A) (A) (A) (A) (A) (A)
                 (A) (A) (A) (A) (A) (A) (A) (A) (A) (A) (A) (A)
                 (A) (A) (A)
     4 initial guesses have been made.
 Convergence on wavefunction:    0.001000000000000
 Iteration     1 Dimension     4 NMult     0 NNew      4
 CISAX will form     4 AO SS matrices at one time.
 New state      1 was old state      2
 Iteration     2 Dimension     6 NMult     4 NNew      2
 Iteration     3 Dimension     8 NMult     6 NNew      2
 Iteration     4 Dimension    10 NMult     8 NNew      2
 Iteration     5 Dimension    12 NMult    10 NNew      2
 ***********************************************************************
 Excited states from <AA,BB:AA,BB> singles matrix:
 ***********************************************************************
 
 Ground to excited state transition densities written to RWF  633
 Ground to excited state transition electric dipole moments (Au):
       state          X           Y           Z        Dip. S.      Osc.
         1         0.0471      0.0151     -0.0004      0.0024      0.0003
 Ground to excited state transition velocity dipole moments (Au):
       state          X           Y           Z        Dip. S.      Osc.
         1        -0.0096     -0.0028     -0.0006      0.0001      0.0004
 Ground to excited state transition magnetic dipole moments (Au):
       state          X           Y           Z
         1        -0.0086     -0.0275     -0.0158
 Ground to excited state transition velocity quadrupole moments (Au):
       state          XX          YY          ZZ          XY          XZ          YZ
         1        -0.0075      0.0019      0.0025     -0.0007      0.0146     -0.0155
 <0|del|b> * <b|rxdel|0> + <0|del|b> * <b|delr+rdel|0>
 Rotatory Strengths (R) in cgs (10**-40 erg-esu-cm/Gauss)
       state          XX          YY          ZZ    R(velocity)    E-M Angle
         1         0.2495      0.4658     -0.0563      0.2197       59.00
 1/2[<0|r|b>*<b|rxdel|0> + (<0|rxdel|b>*<b|r|0>)*]
 Rotatory Strengths (R) in cgs (10**-40 erg-esu-cm/Gauss)
       state          XX          YY          ZZ     R(length)
         1         0.2876      0.2943     -0.0045      0.1925
  1/2[<0|del|b>*<b|r|0> + (<0|r|b>*<b|del|0>)*] (Au)
       state          X           Y           Z        Dip. S.   Osc.(frdel)
         1        -0.0005     -0.0000      0.0000      0.0005      0.0003

 Excitation energies and oscillator strengths:
 
 Excited State   1:      Singlet-A      4.9437 eV  250.79 nm  f=0.0003  <S**2>=0.000
      20 -> 22         0.49103
      21 -> 23         0.50632
 This state for optimization and/or second-order correction.
 Total Energy, E(TD-HF/TD-DFT) =  -231.993237515    
 Copying the excited state density for this state as the 1-particle RhoCI density.
 SavETr:  write IOETrn=   770 NScale= 10 NData=  16 NLR=1 NState=    1 LETran=      28.

 **********************************************************************

            Population analysis using the SCF Density.

 **********************************************************************

 Orbital symmetries:
       Occupied  (A) (A) (A) (A) (A) (A) (A) (A) (A) (A) (A) (A)
                 (A) (A) (A) (A) (A) (A) (A) (A) (A)
       Virtual   (A) (A) (A) (A) (A) (A) (A) (A) (A) (A) (A) (A)
                 (A) (A) (A) (A) (A) (A) (A) (A) (A) (A) (A) (A)
                 (A) (A) (A) (A) (A) (A) (A) (A) (A) (A) (A) (A)
                 (A) (A) (A) (A) (A) (A) (A) (A) (A) (A) (A) (A)
                 (A) (A) (A) (A) (A) (A) (A) (A) (A) (A) (A) (A)
                 (A) (A) (A) (A) (A) (A) (A) (A) (A) (A) (A) (A)
                 (A) (A) (A) (A) (A) (A) (A) (A) (A) (A) (A) (A)
                 (A) (A) (A) (A) (A) (A) (A) (A) (A) (A) (A) (A)
                 (A) (A) (A)
 The electronic state is 1-A.
 Alpha  occ. eigenvalues --  -10.21992 -10.21458 -10.21405 -10.21338 -10.18928
 Alpha  occ. eigenvalues --  -10.18835  -0.82655  -0.73836  -0.71805  -0.59621
 Alpha  occ. eigenvalues --   -0.58788  -0.50333  -0.46399  -0.42888  -0.41553
 Alpha  occ. eigenvalues --   -0.39403  -0.35879  -0.33432  -0.32425  -0.25031
 Alpha  occ. eigenvalues --   -0.23211
 Alpha virt. eigenvalues --   -0.02234  -0.00608   0.05989   0.11135   0.12910
 Alpha virt. eigenvalues --    0.13974   0.15725   0.16053   0.19533   0.24835
 Alpha virt. eigenvalues --    0.27365   0.28636   0.31825   0.45405   0.47939
 Alpha virt. eigenvalues --    0.49595   0.52846   0.54130   0.56273   0.59130
 Alpha virt. eigenvalues --    0.59461   0.60186   0.60353   0.62019   0.63024
 Alpha virt. eigenvalues --    0.65569   0.66251   0.73186   0.73389   0.76345
 Alpha virt. eigenvalues --    0.80795   0.85480   0.87264   0.88081   0.91215
 Alpha virt. eigenvalues --    0.94282   0.94382   1.01160   1.04359   1.08467
 Alpha virt. eigenvalues --    1.09925   1.10756   1.22695   1.26598   1.30511
 Alpha virt. eigenvalues --    1.33089   1.42130   1.43291   1.46202   1.51291
 Alpha virt. eigenvalues --    1.67473   1.69198   1.73198   1.74330   1.84006
 Alpha virt. eigenvalues --    1.87146   1.90685   1.93725   1.93960   1.97810
 Alpha virt. eigenvalues --    2.01526   2.02502   2.04899   2.17946   2.21062
 Alpha virt. eigenvalues --    2.23307   2.25336   2.28309   2.33137   2.37603
 Alpha virt. eigenvalues --    2.39225   2.42607   2.44146   2.44686   2.48164
 Alpha virt. eigenvalues --    2.52384   2.52990   2.53875   2.55981   2.59449
 Alpha virt. eigenvalues --    2.66778   2.74883   2.75497   2.86235   2.91216
 Alpha virt. eigenvalues --    2.94650   3.03643   3.20976   3.26776   3.31558
 Alpha virt. eigenvalues --    3.47340   3.55774   3.86360   4.07071   4.14933
 Alpha virt. eigenvalues --    4.16190   4.39703   4.42443   4.70444
          Condensed to atoms (all electrons):
               1          2          3          4          5          6
     1  C    4.921145   0.497556  -0.032615  -0.032063  -0.037888   0.498014
     2  C    0.497556   4.913354   0.510090  -0.031681  -0.033098  -0.029251
     3  C   -0.032615   0.510090   4.762284   0.567978  -0.031832  -0.028180
     4  C   -0.032063  -0.031681   0.567978   4.797421   0.507340  -0.040748
     5  C   -0.037888  -0.033098  -0.031832   0.507340   4.871933   0.536185
     6  C    0.498014  -0.029251  -0.028180  -0.040748   0.536185   4.857682
     7  H    0.361565  -0.037936   0.003336   0.000352   0.003344  -0.033551
     8  H   -0.036071   0.002678   0.000363   0.003439  -0.034595   0.353175
     9  H    0.002497   0.000246   0.002673  -0.028045   0.335108  -0.029295
    10  H    0.000438   0.005795  -0.045659   0.378590  -0.045788   0.005206
    11  H    0.004291  -0.049336   0.381478  -0.048074   0.006309   0.000271
    12  H   -0.039272   0.361056  -0.032114   0.003163   0.000303   0.003073
               7          8          9         10         11         12
     1  C    0.361565  -0.036071   0.002497   0.000438   0.004291  -0.039272
     2  C   -0.037936   0.002678   0.000246   0.005795  -0.049336   0.361056
     3  C    0.003336   0.000363   0.002673  -0.045659   0.381478  -0.032114
     4  C    0.000352   0.003439  -0.028045   0.378590  -0.048074   0.003163
     5  C    0.003344  -0.034595   0.335108  -0.045788   0.006309   0.000303
     6  C   -0.033551   0.353175  -0.029295   0.005206   0.000271   0.003073
     7  H    0.612972  -0.003128  -0.000072   0.000007  -0.000158  -0.003620
     8  H   -0.003128   0.630707  -0.004424  -0.000176   0.000013  -0.000096
     9  H   -0.000072  -0.004424   0.654411  -0.003715  -0.000140   0.000005
    10  H    0.000007  -0.000176  -0.003715   0.630038  -0.010668  -0.000142
    11  H   -0.000158   0.000013  -0.000140  -0.010668   0.636547  -0.003202
    12  H   -0.003620  -0.000096   0.000005  -0.000142  -0.003202   0.612897
 Mulliken charges:
               1
     1  C   -0.107598
     2  C   -0.109473
     3  C   -0.057802
     4  C   -0.077670
     5  C   -0.077322
     6  C   -0.092582
     7  H    0.096890
     8  H    0.088114
     9  H    0.070751
    10  H    0.086075
    11  H    0.082670
    12  H    0.097948
 Sum of Mulliken charges =  -0.00000
 Mulliken charges with hydrogens summed into heavy atoms:
               1
     1  C   -0.010708
     2  C   -0.011525
     3  C    0.024868
     4  C    0.008405
     5  C   -0.006572
     6  C   -0.004468
 Electronic spatial extent (au):  <R**2>=            488.5255
 Charge=             -0.0000 electrons
 Dipole moment (field-independent basis, Debye):
    X=              0.1891    Y=             -0.1014    Z=              0.0532  Tot=              0.2211
 Quadrupole moment (field-independent basis, Debye-Ang):
   XX=            -31.7249   YY=            -31.1590   ZZ=            -39.2701
   XY=              0.2623   XZ=             -0.3611   YZ=              0.1888
 Traceless Quadrupole moment (field-independent basis, Debye-Ang):
   XX=              2.3264   YY=              2.8923   ZZ=             -5.2187
   XY=              0.2623   XZ=             -0.3611   YZ=              0.1888
 Octapole moment (field-independent basis, Debye-Ang**2):
  XXX=              1.1164  YYY=             -0.7125  ZZZ=             -0.1362  XYY=              1.6184
  XXY=              0.3772  XXZ=              1.8764  XZZ=              0.5482  YZZ=             -0.9410
  YYZ=             -0.9988  XYZ=              0.4672
 Hexadecapole moment (field-independent basis, Debye-Ang**3):
 XXXX=           -302.8299 YYYY=           -280.7935 ZZZZ=            -42.6548 XXXY=              2.3410
 XXXZ=             -2.6267 YYYX=             -0.2426 YYYZ=              1.0750 ZZZX=             -0.0714
 ZZZY=              0.4202 XXYY=            -94.5681 XXZZ=            -67.5316 YYZZ=            -63.2005
 XXYZ=              0.2093 YYXZ=             -0.8522 ZZXY=             -0.4337
 N-N= 1.959653914120D+02 E-N=-9.284303126521D+02  KE= 2.290815285754D+02
 1\1\GINC-DESKTOP-PRN5QE3\SP\RB3LYP TD-FC\6-31G(d,p)\C6H6\SHOHEI\10-Nov
 -2023\0\\# TD=(NStates=1) B3LYP/6-31G(d,p)\\EMISPCT\\0,1\C,0,0.3432697
 945,1.4170794382,0.0211458197\C,0,1.4521546721,0.3508668569,0.00093984
 56\C,0,1.0199831348,-1.0352488338,0.0324042187\C,0,-0.3175627094,-1.35
 69477851,-0.0572836853\C,0,-1.3923992782,-0.3783679182,0.0648430475\C,
 0,-1.0824886353,0.9852831417,-0.0739883808\H,0,0.701882316,2.458846682
 8,-0.1027627583\H,0,-1.9162734816,1.8152648133,0.0652942265\H,0,-2.632
 0832305,-0.7867440424,0.3032296658\H,0,-0.5917576911,-2.3178571705,-0.
 1787425937\H,0,1.644098799,-1.7887993513,-0.0548481713\H,0,2.485620788
 8,0.7826937826,0.1309871365\\Version=EM64L-G16RevB.01\State=1-A\HF=-23
 2.1749133\RMSD=6.341e-09\PG=C01 [X(C6H6)]\\@


 ERWIN WITH HIS PSI CAN DO
 CALCULATIONS QUITE A FEW.
 BUT ONE THING HAS NOT BEEN SEEN
 JUST WHAT DOES PSI REALLY MEAN.
 -- WALTER HUCKEL, TRANS. BY FELIX BLOCH
 Job cpu time:       0 days  0 hours  3 minutes  6.5 seconds.
 Elapsed time:       0 days  0 hours  0 minutes 47.3 seconds.
 File lengths (MBytes):  RWF=    116 Int=      0 D2E=      0 Chk=      3 Scr=      1
 Normal termination of Gaussian 16 at Fri Nov 10 21:06:05 2023.
