 Entering Gaussian System, Link 0=g16
 Input=Geometry-143-.com
 Output=Geometry-143-.log
 Initial command:
 /home/shohei/gaussian/g16/l1.exe "/home/shohei/gaussian/scratch/Gau-24505.inp" -scrdir="/home/shohei/gaussian/scratch/"
 Entering Link 1 = /home/shohei/gaussian/g16/l1.exe PID=     24507.
  
 Copyright (c) 1988-2017, Gaussian, Inc.  All Rights Reserved.
  
 This is part of the Gaussian(R) 16 program.  It is based on
 the Gaussian(R) 09 system (copyright 2009, Gaussian, Inc.),
 the Gaussian(R) 03 system (copyright 2003, Gaussian, Inc.),
 the Gaussian(R) 98 system (copyright 1998, Gaussian, Inc.),
 the Gaussian(R) 94 system (copyright 1995, Gaussian, Inc.),
 the Gaussian 92(TM) system (copyright 1992, Gaussian, Inc.),
 the Gaussian 90(TM) system (copyright 1990, Gaussian, Inc.),
 the Gaussian 88(TM) system (copyright 1988, Gaussian, Inc.),
 the Gaussian 86(TM) system (copyright 1986, Carnegie Mellon
 University), and the Gaussian 82(TM) system (copyright 1983,
 Carnegie Mellon University). Gaussian is a federally registered
 trademark of Gaussian, Inc.
  
 This software contains proprietary and confidential information,
 including trade secrets, belonging to Gaussian, Inc.
  
 This software is provided under written license and may be
 used, copied, transmitted, or stored only in accord with that
 written license.
  
 The following legend is applicable only to US Government
 contracts under FAR:
  
                    RESTRICTED RIGHTS LEGEND
  
 Use, reproduction and disclosure by the US Government is
 subject to restrictions as set forth in subparagraphs (a)
 and (c) of the Commercial Computer Software - Restricted
 Rights clause in FAR 52.227-19.
  
 Gaussian, Inc.
 340 Quinnipiac St., Bldg. 40, Wallingford CT 06492
  
  
 ---------------------------------------------------------------
 Warning -- This program may not be used in any manner that
 competes with the business of Gaussian, Inc. or will provide
 assistance to any competitor of Gaussian, Inc.  The licensee
 of this program is prohibited from giving any competitor of
 Gaussian, Inc. access to this program.  By using this program,
 the user acknowledges that Gaussian, Inc. is engaged in the
 business of creating and licensing software in the field of
 computational chemistry and represents and warrants to the
 licensee that it is not a competitor of Gaussian, Inc. and that
 it will not use this program in any manner prohibited above.
 ---------------------------------------------------------------
  

 Cite this work as:
 Gaussian 16, Revision B.01,
 M. J. Frisch, G. W. Trucks, H. B. Schlegel, G. E. Scuseria, 
 M. A. Robb, J. R. Cheeseman, G. Scalmani, V. Barone, 
 G. A. Petersson, H. Nakatsuji, X. Li, M. Caricato, A. V. Marenich, 
 J. Bloino, B. G. Janesko, R. Gomperts, B. Mennucci, H. P. Hratchian, 
 J. V. Ortiz, A. F. Izmaylov, J. L. Sonnenberg, D. Williams-Young, 
 F. Ding, F. Lipparini, F. Egidi, J. Goings, B. Peng, A. Petrone, 
 T. Henderson, D. Ranasinghe, V. G. Zakrzewski, J. Gao, N. Rega, 
 G. Zheng, W. Liang, M. Hada, M. Ehara, K. Toyota, R. Fukuda, 
 J. Hasegawa, M. Ishida, T. Nakajima, Y. Honda, O. Kitao, H. Nakai, 
 T. Vreven, K. Throssell, J. A. Montgomery, Jr., J. E. Peralta, 
 F. Ogliaro, M. J. Bearpark, J. J. Heyd, E. N. Brothers, K. N. Kudin, 
 V. N. Staroverov, T. A. Keith, R. Kobayashi, J. Normand, 
 K. Raghavachari, A. P. Rendell, J. C. Burant, S. S. Iyengar, 
 J. Tomasi, M. Cossi, J. M. Millam, M. Klene, C. Adamo, R. Cammi, 
 J. W. Ochterski, R. L. Martin, K. Morokuma, O. Farkas, 
 J. B. Foresman, and D. J. Fox, Gaussian, Inc., Wallingford CT, 2016.
 
 ******************************************
 Gaussian 16:  EM64L-G16RevB.01 20-Dec-2017
                10-Nov-2023 
 ******************************************
 %nproc=4
 Will use up to    4 processors via shared memory.
 %Mem=2Gb
 ---------------------------------
 # TD=(NStates=1) B3LYP/6-31G(d,p)
 ---------------------------------
 1/38=1,172=1/1;
 2/12=2,17=6,18=5,40=1/2;
 3/5=1,6=6,7=101,11=9,25=1,30=1,74=-5/1,2,3,8;
 4//1;
 5/5=2,38=5/2;
 8/6=1,10=2,108=1/1;
 9/41=1,42=1,70=2/14;
 6/7=2,8=2,9=2,10=2/1;
 99/5=1,9=1/99;
 -------
 EMISPCT
 -------
 Symbolic Z-matrix:
 Charge =  0 Multiplicity = 1
 6                     0.36868   1.45961   0.1298 
 6                     1.31594   0.3764   -0.0672 
 6                     0.97704  -1.00802  -0.04623 
 6                    -0.35706  -1.45964   0.03832 
 6                    -1.28604  -0.38484  -0.03736 
 6                    -1.04505   0.99613  -0.05378 
 1                     0.68864   2.58445  -0.13605 
 1                    -1.65736   1.92186  -0.06872 
 1                    -2.39544  -0.61023   0.16074 
 1                    -0.50747  -2.55526   0.3062 
 1                     1.76097  -1.71685   0.03418 
 1                     2.38775   0.63031   0.202 
 
                          Input orientation:                          
 ---------------------------------------------------------------------
 Center     Atomic      Atomic             Coordinates (Angstroms)
 Number     Number       Type             X           Y           Z
 ---------------------------------------------------------------------
      1          6           0        0.368678    1.459606    0.129796
      2          6           0        1.315941    0.376396   -0.067200
      3          6           0        0.977039   -1.008017   -0.046231
      4          6           0       -0.357055   -1.459644    0.038318
      5          6           0       -1.286036   -0.384841   -0.037364
      6          6           0       -1.045048    0.996130   -0.053784
      7          1           0        0.688639    2.584451   -0.136055
      8          1           0       -1.657360    1.921860   -0.068722
      9          1           0       -2.395436   -0.610229    0.160737
     10          1           0       -0.507474   -2.555262    0.306198
     11          1           0        1.760970   -1.716851    0.034181
     12          1           0        2.387747    0.630307    0.202004
 ---------------------------------------------------------------------
                    Distance matrix (angstroms):
                    1          2          3          4          5
     1  C    0.000000
     2  C    1.452397   0.000000
     3  C    2.547597   1.425445   0.000000
     4  C    3.009497   2.486180   1.411001   0.000000
     5  C    2.483547   2.711209   2.347325   1.422650   0.000000
     6  C    1.499045   2.441008   2.847016   2.551988   1.401937
     7  H    1.199303   2.296466   3.605145   4.180739   3.567321
     8  H    2.087563   3.350967   3.940145   3.624475   2.336608
     9  H    3.453332   3.847038   3.402155   2.211671   1.149266
    10  H    4.113140   3.472591   2.173005   1.137878   2.331291
    11  H    3.469510   2.142432   1.059934   2.133590   3.326201
    12  H    2.183939   1.133891   2.176194   3.453784   3.818966
                    6          7          8          9         10
     6  C    0.000000
     7  H    2.352701   0.000000
     8  H    1.110011   2.438702   0.000000
     9  H    2.109491   4.450346   2.647429   0.000000
    10  H    3.609842   5.295557   4.637610   2.714538   0.000000
    11  H    3.904068   4.436223   4.993575   4.303062   2.433673
    12  H    3.461696   2.611500   4.254914   4.941606   4.305927
                   11         12
    11  H    0.000000
    12  H    2.435193   0.000000
 Stoichiometry    C6H6
 Framework group  C1[X(C6H6)]
 Deg. of freedom    30
 Full point group                 C1      NOp   1
 Largest Abelian subgroup         C1      NOp   1
 Largest concise Abelian subgroup C1      NOp   1
                         Standard orientation:                         
 ---------------------------------------------------------------------
 Center     Atomic      Atomic             Coordinates (Angstroms)
 Number     Number       Type             X           Y           Z
 ---------------------------------------------------------------------
      1          6           0       -1.453997    0.370521    0.137499
      2          6           0       -0.369894    1.314215   -0.071353
      3          6           0        1.013600    0.971016   -0.064049
      4          6           0        1.461907   -0.364401    0.017224
      5          6           0        0.383510   -1.290095   -0.046689
      6          6           0       -0.996800   -1.044816   -0.049385
      7          1           0       -2.580472    0.693740   -0.117279
      8          1           0       -1.924534   -1.654250   -0.054373
      9          1           0        0.607438   -2.400006    0.150198
     10          1           0        2.559704   -0.517986    0.274164
     11          1           0        1.725645    1.752806    0.008436
     12          1           0       -0.617735    2.387060    0.199365
 ---------------------------------------------------------------------
 Rotational constants (GHZ):           5.8059518           5.0523227           2.7170949
 Standard basis: 6-31G(d,p) (6D, 7F)
 There are   120 symmetry adapted cartesian basis functions of A   symmetry.
 There are   120 symmetry adapted basis functions of A   symmetry.
   120 basis functions,   210 primitive gaussians,   120 cartesian basis functions
    21 alpha electrons       21 beta electrons
       nuclear repulsion energy       198.0680639447 Hartrees.
 NAtoms=   12 NActive=   12 NUniq=   12 SFac= 1.00D+00 NAtFMM=   60 NAOKFM=F Big=F
 Integral buffers will be    131072 words long.
 Regular integral format.
 Two-electron integral symmetry is turned on.
 One-electron integrals computed using PRISM.
 NBasis=   120 RedAO= T EigKep=  1.19D-03  NBF=   120
 NBsUse=   120 1.00D-06 EigRej= -1.00D+00 NBFU=   120
 ExpMin= 1.61D-01 ExpMax= 3.05D+03 ExpMxC= 4.57D+02 IAcc=3 IRadAn=         5 AccDes= 0.00D+00
 Harris functional with IExCor=  402 and IRadAn=       5 diagonalized for initial guess.
 HarFok:  IExCor=  402 AccDes= 0.00D+00 IRadAn=         5 IDoV= 1 UseB2=F ITyADJ=14
 ICtDFT=  3500011 ScaDFX=  1.000000  1.000000  1.000000  1.000000
 FoFCou: FMM=F IPFlag=           0 FMFlag=      100000 FMFlg1=           0
         NFxFlg=           0 DoJE=T BraDBF=F KetDBF=T FulRan=T
         wScrn=  0.000000 ICntrl=       500 IOpCl=  0 I1Cent=   200000004 NGrid=           0
         NMat0=    1 NMatS0=      1 NMatT0=    0 NMatD0=    1 NMtDS0=    0 NMtDT0=    0
 Petite list used in FoFCou.
 Keep R1 ints in memory in canonical form, NReq=30147728.
 Requested convergence on RMS density matrix=1.00D-08 within 128 cycles.
 Requested convergence on MAX density matrix=1.00D-06.
 Requested convergence on             energy=1.00D-06.
 No special actions if energy rises.
 Integral accuracy reduced to 1.0D-05 until final iterations.
 Initial convergence to 1.0D-05 achieved.  Increase integral accuracy.
 SCF Done:  E(RB3LYP) =  -232.196126439     A.U. after   14 cycles
            NFock= 14  Conv=0.35D-08     -V/T= 2.0133
 DoSCS=F DFT=T ScalE2(SS,OS)=  1.000000  1.000000
 ExpMin= 1.61D-01 ExpMax= 3.05D+03 ExpMxC= 4.57D+02 IAcc=3 IRadAn=         5 AccDes= 0.00D+00
 HarFok:  IExCor=  205 AccDes= 0.00D+00 IRadAn=         5 IDoV=-2 UseB2=F ITyADJ=14
 ICtDFT= 12500011 ScaDFX=  1.000000  1.000000  1.000000  1.000000
 Range of M.O.s used for correlation:     7   120
 NBasis=   120 NAE=    21 NBE=    21 NFC=     6 NFV=     0
 NROrb=    114 NOA=    15 NOB=    15 NVA=    99 NVB=    99
 Keep R1, R2, and R3 ints in memory in canonical form, NReq=84032236.
 Orbital symmetries:
       Occupied  (A) (A) (A) (A) (A) (A) (A) (A) (A) (A) (A) (A)
                 (A) (A) (A) (A) (A) (A) (A) (A) (A)
       Virtual   (A) (A) (A) (A) (A) (A) (A) (A) (A) (A) (A) (A)
                 (A) (A) (A) (A) (A) (A) (A) (A) (A) (A) (A) (A)
                 (A) (A) (A) (A) (A) (A) (A) (A) (A) (A) (A) (A)
                 (A) (A) (A) (A) (A) (A) (A) (A) (A) (A) (A) (A)
                 (A) (A) (A) (A) (A) (A) (A) (A) (A) (A) (A) (A)
                 (A) (A) (A) (A) (A) (A) (A) (A) (A) (A) (A) (A)
                 (A) (A) (A) (A) (A) (A) (A) (A) (A) (A) (A) (A)
                 (A) (A) (A) (A) (A) (A) (A) (A) (A) (A) (A) (A)
                 (A) (A) (A)
     4 initial guesses have been made.
 Convergence on wavefunction:    0.001000000000000
 Iteration     1 Dimension     4 NMult     0 NNew      4
 CISAX will form     4 AO SS matrices at one time.
 Iteration     2 Dimension     6 NMult     4 NNew      2
 Iteration     3 Dimension     8 NMult     6 NNew      2
 Iteration     4 Dimension    10 NMult     8 NNew      2
 Iteration     5 Dimension    12 NMult    10 NNew      2
 Iteration     6 Dimension    14 NMult    12 NNew      2
 ***********************************************************************
 Excited states from <AA,BB:AA,BB> singles matrix:
 ***********************************************************************
 
 Ground to excited state transition densities written to RWF  633
 Ground to excited state transition electric dipole moments (Au):
       state          X           Y           Z        Dip. S.      Osc.
         1        -0.0827     -0.2405     -0.0065      0.0647      0.0078
 Ground to excited state transition velocity dipole moments (Au):
       state          X           Y           Z        Dip. S.      Osc.
         1         0.0155      0.0446     -0.0003      0.0022      0.0082
 Ground to excited state transition magnetic dipole moments (Au):
       state          X           Y           Z
         1         0.0106     -0.0190      0.0571
 Ground to excited state transition velocity quadrupole moments (Au):
       state          XX          YY          ZZ          XY          XZ          YZ
         1        -0.0099      0.0028      0.0034     -0.0045      0.0080     -0.0223
 <0|del|b> * <b|rxdel|0> + <0|del|b> * <b|delr+rdel|0>
 Rotatory Strengths (R) in cgs (10**-40 erg-esu-cm/Gauss)
       state          XX          YY          ZZ    R(velocity)    E-M Angle
         1        -2.3735     -0.3907      0.0425     -0.9072      104.05
 1/2[<0|r|b>*<b|rxdel|0> + (<0|rxdel|b>*<b|r|0>)*]
 Rotatory Strengths (R) in cgs (10**-40 erg-esu-cm/Gauss)
       state          XX          YY          ZZ     R(length)
         1         0.6178     -3.2253      0.2643     -0.7811
  1/2[<0|del|b>*<b|r|0> + (<0|r|b>*<b|del|0>)*] (Au)
       state          X           Y           Z        Dip. S.   Osc.(frdel)
         1        -0.0013     -0.0107      0.0000      0.0120      0.0080

 Excitation energies and oscillator strengths:
 
 Excited State   1:      Singlet-A      4.9474 eV  250.61 nm  f=0.0078  <S**2>=0.000
      20 -> 23        -0.40563
      21 -> 22         0.57831
 This state for optimization and/or second-order correction.
 Total Energy, E(TD-HF/TD-DFT) =  -232.014313531    
 Copying the excited state density for this state as the 1-particle RhoCI density.
 SavETr:  write IOETrn=   770 NScale= 10 NData=  16 NLR=1 NState=    1 LETran=      28.

 **********************************************************************

            Population analysis using the SCF Density.

 **********************************************************************

 Orbital symmetries:
       Occupied  (A) (A) (A) (A) (A) (A) (A) (A) (A) (A) (A) (A)
                 (A) (A) (A) (A) (A) (A) (A) (A) (A)
       Virtual   (A) (A) (A) (A) (A) (A) (A) (A) (A) (A) (A) (A)
                 (A) (A) (A) (A) (A) (A) (A) (A) (A) (A) (A) (A)
                 (A) (A) (A) (A) (A) (A) (A) (A) (A) (A) (A) (A)
                 (A) (A) (A) (A) (A) (A) (A) (A) (A) (A) (A) (A)
                 (A) (A) (A) (A) (A) (A) (A) (A) (A) (A) (A) (A)
                 (A) (A) (A) (A) (A) (A) (A) (A) (A) (A) (A) (A)
                 (A) (A) (A) (A) (A) (A) (A) (A) (A) (A) (A) (A)
                 (A) (A) (A) (A) (A) (A) (A) (A) (A) (A) (A) (A)
                 (A) (A) (A)
 The electronic state is 1-A.
 Alpha  occ. eigenvalues --  -10.21087 -10.20813 -10.20572 -10.20494 -10.19967
 Alpha  occ. eigenvalues --  -10.19356  -0.83436  -0.73576  -0.72677  -0.59218
 Alpha  occ. eigenvalues --   -0.58903  -0.50169  -0.45700  -0.44404  -0.40618
 Alpha  occ. eigenvalues --   -0.39097  -0.35797  -0.35060  -0.30577  -0.24497
 Alpha  occ. eigenvalues --   -0.24320
 Alpha virt. eigenvalues --   -0.02468  -0.00525   0.07323   0.11842   0.12518
 Alpha virt. eigenvalues --    0.13866   0.15589   0.16523   0.18693   0.25751
 Alpha virt. eigenvalues --    0.27723   0.28383   0.32604   0.46355   0.47295
 Alpha virt. eigenvalues --    0.51899   0.52900   0.53972   0.58752   0.59220
 Alpha virt. eigenvalues --    0.59862   0.60235   0.61305   0.62703   0.63057
 Alpha virt. eigenvalues --    0.65777   0.66283   0.73191   0.75187   0.79127
 Alpha virt. eigenvalues --    0.80731   0.82632   0.83969   0.89558   0.90624
 Alpha virt. eigenvalues --    0.92303   0.95066   0.97026   1.04344   1.05771
 Alpha virt. eigenvalues --    1.08848   1.10732   1.18357   1.28469   1.33863
 Alpha virt. eigenvalues --    1.35745   1.39307   1.43475   1.47526   1.53079
 Alpha virt. eigenvalues --    1.69589   1.72019   1.74399   1.77155   1.82110
 Alpha virt. eigenvalues --    1.88346   1.91515   1.93538   1.97496   1.99444
 Alpha virt. eigenvalues --    2.02290   2.03589   2.06277   2.16387   2.19177
 Alpha virt. eigenvalues --    2.21231   2.27598   2.32176   2.34949   2.37191
 Alpha virt. eigenvalues --    2.39576   2.42602   2.43634   2.44900   2.46850
 Alpha virt. eigenvalues --    2.48296   2.50825   2.53520   2.56581   2.65220
 Alpha virt. eigenvalues --    2.67810   2.68794   2.79633   2.81377   2.90644
 Alpha virt. eigenvalues --    3.01546   3.12603   3.18457   3.20809   3.29275
 Alpha virt. eigenvalues --    3.36677   3.50415   3.71698   4.09890   4.15961
 Alpha virt. eigenvalues --    4.18787   4.42671   4.44652   4.73535
          Condensed to atoms (all electrons):
               1          2          3          4          5          6
     1  C    4.953926   0.517639  -0.032410  -0.026989  -0.034373   0.478619
     2  C    0.517639   4.865556   0.533924  -0.038473  -0.043939  -0.043331
     3  C   -0.032410   0.533924   4.827828   0.528175  -0.037669  -0.035671
     4  C   -0.026989  -0.038473   0.528175   4.830815   0.521765  -0.031237
     5  C   -0.034373  -0.043939  -0.037669   0.521765   4.846040   0.543618
     6  C    0.478619  -0.043331  -0.035671  -0.031237   0.543618   4.879346
     7  H    0.348521  -0.030041   0.002928   0.000410   0.003243  -0.031333
     8  H   -0.052744   0.004812   0.000416   0.002542  -0.029399   0.368364
     9  H    0.005081   0.000422   0.005363  -0.041800   0.359610  -0.051047
    10  H    0.000003   0.004544  -0.041257   0.369523  -0.031615   0.002728
    11  H    0.004699  -0.043314   0.371037  -0.045843   0.006130   0.000404
    12  H   -0.046334   0.360266  -0.039021   0.004708   0.000315   0.004869
               7          8          9         10         11         12
     1  C    0.348521  -0.052744   0.005081   0.000003   0.004699  -0.046334
     2  C   -0.030041   0.004812   0.000422   0.004544  -0.043314   0.360266
     3  C    0.002928   0.000416   0.005363  -0.041257   0.371037  -0.039021
     4  C    0.000410   0.002542  -0.041800   0.369523  -0.045843   0.004708
     5  C    0.003243  -0.029399   0.359610  -0.031615   0.006130   0.000315
     6  C   -0.031333   0.368364  -0.051047   0.002728   0.000404   0.004869
     7  H    0.620116  -0.003108  -0.000125   0.000006  -0.000099  -0.003626
     8  H   -0.003108   0.611742  -0.005744  -0.000041   0.000012  -0.000271
     9  H   -0.000125  -0.005744   0.655153  -0.004182  -0.000230   0.000011
    10  H    0.000006  -0.000041  -0.004182   0.598199  -0.005694  -0.000160
    11  H   -0.000099   0.000012  -0.000230  -0.005694   0.633591  -0.007940
    12  H   -0.003626  -0.000271   0.000011  -0.000160  -0.007940   0.646399
 Mulliken charges:
               1
     1  C   -0.115638
     2  C   -0.088064
     3  C   -0.083642
     4  C   -0.073596
     5  C   -0.103724
     6  C   -0.085328
     7  H    0.093109
     8  H    0.103419
     9  H    0.077487
    10  H    0.107947
    11  H    0.087248
    12  H    0.080782
 Sum of Mulliken charges =  -0.00000
 Mulliken charges with hydrogens summed into heavy atoms:
               1
     1  C   -0.022529
     2  C   -0.007282
     3  C    0.003605
     4  C    0.034350
     5  C   -0.026236
     6  C    0.018091
 Electronic spatial extent (au):  <R**2>=            478.1986
 Charge=             -0.0000 electrons
 Dipole moment (field-independent basis, Debye):
    X=              0.1562    Y=              0.0616    Z=              0.2597  Tot=              0.3092
 Quadrupole moment (field-independent basis, Debye-Ang):
   XX=            -30.2774   YY=            -33.3759   ZZ=            -39.0563
   XY=              0.5558   XZ=              1.0072   YZ=              0.0058
 Traceless Quadrupole moment (field-independent basis, Debye-Ang):
   XX=              3.9592   YY=              0.8606   ZZ=             -4.8198
   XY=              0.5558   XZ=              1.0072   YZ=              0.0058
 Octapole moment (field-independent basis, Debye-Ang**2):
  XXX=              0.7668  YYY=              1.3405  ZZZ=              0.3012  XYY=             -0.0234
  XXY=             -0.1882  XXZ=              0.6689  XZZ=              0.6951  YZZ=              0.0705
  YYZ=              1.7653  XYZ=             -0.4733
 Hexadecapole moment (field-independent basis, Debye-Ang**3):
 XXXX=           -287.8707 YYYY=           -279.9012 ZZZZ=            -42.8804 XXXY=              2.2573
 XXXZ=              8.1976 YYYX=              3.0340 YYYZ=              0.9202 ZZZX=              0.9748
 ZZZY=              0.0116 XXYY=            -97.1974 XXZZ=            -67.2201 YYZZ=            -60.6687
 XXYZ=             -1.1168 YYXZ=              0.6590 ZZXY=              0.3782
 N-N= 1.980680639447D+02 E-N=-9.327501263091D+02  KE= 2.291461388797D+02
 1\1\GINC-DESKTOP-PRN5QE3\SP\RB3LYP TD-FC\6-31G(d,p)\C6H6\SHOHEI\10-Nov
 -2023\0\\# TD=(NStates=1) B3LYP/6-31G(d,p)\\EMISPCT\\0,1\C,0,0.3686784
 166,1.4596056633,0.1297957341\C,0,1.315940989,0.3763959825,-0.06719997
 29\C,0,0.9770394664,-1.0080169087,-0.0462310481\C,0,-0.3570551769,-1.4
 596435372,0.0383176143\C,0,-1.2860358468,-0.3848414766,-0.0373635291\C
 ,0,-1.0450484254,0.9961298955,-0.0537837164\H,0,0.6886386561,2.5844507
 988,-0.1360549511\H,0,-1.6573596335,1.921860186,-0.068722392\H,0,-2.39
 54357807,-0.6102286983,0.1607368072\H,0,-0.5074736004,-2.5552618613,0.
 3061984157\H,0,1.7609702597,-1.7168511557,0.0341812804\H,0,2.387746855
 ,0.6303069981,0.2020040551\\Version=EM64L-G16RevB.01\State=1-A\HF=-232
 .1961264\RMSD=3.454e-09\PG=C01 [X(C6H6)]\\@


            THE IRISH PIG
 'TWAS AN EVENING IN NOVEMBER,
 AS I VERY WELL REMEMBER
 I WAS STROLLING DOWN THE STREET IN DRUNKEN PRIDE,
 BUT MY KNEES WERE ALL A'FLUTTER
 SO I LANDED IN THE GUTTER,
 AND A PIG CAME UP AND LAY DOWN BY MY SIDE.

 YES, I LAY THERE IN THE GUTTER
 THINKING THOUGHTS I COULD NOT UTTER
 WHEN A COLLEEN PASSING BY DID SOFTLY SAY,
 'YE CAN TELL A MAN THAT BOOZES
 BY THE COMPANY THAT HE CHOOSES.' -
 AT THAT, THE PIG GOT UP AND WALKED AWAY!
     -- THE ECONOMIST, AUGUST 23, 1986
 Job cpu time:       0 days  0 hours  3 minutes 42.2 seconds.
 Elapsed time:       0 days  0 hours  0 minutes 56.2 seconds.
 File lengths (MBytes):  RWF=    116 Int=      0 D2E=      0 Chk=      3 Scr=      1
 Normal termination of Gaussian 16 at Fri Nov 10 21:30:42 2023.
