 Entering Gaussian System, Link 0=g16
 Input=Geometry-407-.com
 Output=Geometry-407-.log
 Initial command:
 /home/shohei/gaussian/g16/l1.exe "/home/shohei/gaussian/scratch/Gau-25975.inp" -scrdir="/home/shohei/gaussian/scratch/"
 Entering Link 1 = /home/shohei/gaussian/g16/l1.exe PID=     25977.
  
 Copyright (c) 1988-2017, Gaussian, Inc.  All Rights Reserved.
  
 This is part of the Gaussian(R) 16 program.  It is based on
 the Gaussian(R) 09 system (copyright 2009, Gaussian, Inc.),
 the Gaussian(R) 03 system (copyright 2003, Gaussian, Inc.),
 the Gaussian(R) 98 system (copyright 1998, Gaussian, Inc.),
 the Gaussian(R) 94 system (copyright 1995, Gaussian, Inc.),
 the Gaussian 92(TM) system (copyright 1992, Gaussian, Inc.),
 the Gaussian 90(TM) system (copyright 1990, Gaussian, Inc.),
 the Gaussian 88(TM) system (copyright 1988, Gaussian, Inc.),
 the Gaussian 86(TM) system (copyright 1986, Carnegie Mellon
 University), and the Gaussian 82(TM) system (copyright 1983,
 Carnegie Mellon University). Gaussian is a federally registered
 trademark of Gaussian, Inc.
  
 This software contains proprietary and confidential information,
 including trade secrets, belonging to Gaussian, Inc.
  
 This software is provided under written license and may be
 used, copied, transmitted, or stored only in accord with that
 written license.
  
 The following legend is applicable only to US Government
 contracts under FAR:
  
                    RESTRICTED RIGHTS LEGEND
  
 Use, reproduction and disclosure by the US Government is
 subject to restrictions as set forth in subparagraphs (a)
 and (c) of the Commercial Computer Software - Restricted
 Rights clause in FAR 52.227-19.
  
 Gaussian, Inc.
 340 Quinnipiac St., Bldg. 40, Wallingford CT 06492
  
  
 ---------------------------------------------------------------
 Warning -- This program may not be used in any manner that
 competes with the business of Gaussian, Inc. or will provide
 assistance to any competitor of Gaussian, Inc.  The licensee
 of this program is prohibited from giving any competitor of
 Gaussian, Inc. access to this program.  By using this program,
 the user acknowledges that Gaussian, Inc. is engaged in the
 business of creating and licensing software in the field of
 computational chemistry and represents and warrants to the
 licensee that it is not a competitor of Gaussian, Inc. and that
 it will not use this program in any manner prohibited above.
 ---------------------------------------------------------------
  

 Cite this work as:
 Gaussian 16, Revision B.01,
 M. J. Frisch, G. W. Trucks, H. B. Schlegel, G. E. Scuseria, 
 M. A. Robb, J. R. Cheeseman, G. Scalmani, V. Barone, 
 G. A. Petersson, H. Nakatsuji, X. Li, M. Caricato, A. V. Marenich, 
 J. Bloino, B. G. Janesko, R. Gomperts, B. Mennucci, H. P. Hratchian, 
 J. V. Ortiz, A. F. Izmaylov, J. L. Sonnenberg, D. Williams-Young, 
 F. Ding, F. Lipparini, F. Egidi, J. Goings, B. Peng, A. Petrone, 
 T. Henderson, D. Ranasinghe, V. G. Zakrzewski, J. Gao, N. Rega, 
 G. Zheng, W. Liang, M. Hada, M. Ehara, K. Toyota, R. Fukuda, 
 J. Hasegawa, M. Ishida, T. Nakajima, Y. Honda, O. Kitao, H. Nakai, 
 T. Vreven, K. Throssell, J. A. Montgomery, Jr., J. E. Peralta, 
 F. Ogliaro, M. J. Bearpark, J. J. Heyd, E. N. Brothers, K. N. Kudin, 
 V. N. Staroverov, T. A. Keith, R. Kobayashi, J. Normand, 
 K. Raghavachari, A. P. Rendell, J. C. Burant, S. S. Iyengar, 
 J. Tomasi, M. Cossi, J. M. Millam, M. Klene, C. Adamo, R. Cammi, 
 J. W. Ochterski, R. L. Martin, K. Morokuma, O. Farkas, 
 J. B. Foresman, and D. J. Fox, Gaussian, Inc., Wallingford CT, 2016.
 
 ******************************************
 Gaussian 16:  EM64L-G16RevB.01 20-Dec-2017
                10-Nov-2023 
 ******************************************
 %nproc=4
 Will use up to    4 processors via shared memory.
 %Mem=2Gb
 ---------------------------------
 # TD=(NStates=1) B3LYP/6-31G(d,p)
 ---------------------------------
 1/38=1,172=1/1;
 2/12=2,17=6,18=5,40=1/2;
 3/5=1,6=6,7=101,11=9,25=1,30=1,74=-5/1,2,3,8;
 4//1;
 5/5=2,38=5/2;
 8/6=1,10=2,108=1/1;
 9/41=1,42=1,70=2/14;
 6/7=2,8=2,9=2,10=2/1;
 99/5=1,9=1/99;
 -------
 EMISPCT
 -------
 Symbolic Z-matrix:
 Charge =  0 Multiplicity = 1
 6                     0.37677   1.34058  -0.02062 
 6                     1.43948   0.44994   0.02391 
 6                     0.91691  -0.90191   0.04544 
 6                    -0.39576  -1.4576   -0.12686 
 6                    -1.39634  -0.39605   0.08583 
 6                    -0.93514   0.93507  -0.00036 
 1                     0.68171   2.44978  -0.22134 
 1                    -1.80458   1.5865   -0.01222 
 1                    -2.60382  -0.5521    0.04327 
 1                    -0.70843  -2.51339  -0.0454 
 1                     1.82518  -1.42126   0.20447 
 1                     2.5674    0.78548  -0.06907 
 
                          Input orientation:                          
 ---------------------------------------------------------------------
 Center     Atomic      Atomic             Coordinates (Angstroms)
 Number     Number       Type             X           Y           Z
 ---------------------------------------------------------------------
      1          6           0        0.376769    1.340583   -0.020616
      2          6           0        1.439479    0.449941    0.023906
      3          6           0        0.916910   -0.901912    0.045437
      4          6           0       -0.395765   -1.457603   -0.126858
      5          6           0       -1.396343   -0.396052    0.085831
      6          6           0       -0.935137    0.935074   -0.000363
      7          1           0        0.681707    2.449785   -0.221338
      8          1           0       -1.804579    1.586505   -0.012225
      9          1           0       -2.603817   -0.552098    0.043271
     10          1           0       -0.708425   -2.513386   -0.045398
     11          1           0        1.825182   -1.421260    0.204474
     12          1           0        2.567398    0.785483   -0.069072
 ---------------------------------------------------------------------
                    Distance matrix (angstroms):
                    1          2          3          4          5
     1  C    0.000000
     2  C    1.387292   0.000000
     3  C    2.307574   1.449499   0.000000
     4  C    2.904813   2.651334   1.435825   0.000000
     5  C    2.484182   2.959970   2.368262   1.474205   0.000000
     6  C    1.373297   2.423787   2.608964   2.455977   1.411396
     7  H    1.167735   2.152612   3.370513   4.054325   3.537150
     8  H    2.195183   3.437586   3.688095   3.356261   2.026525
     9  H    3.531319   4.165657   3.538064   2.392567   1.218259
    10  H    4.003915   3.660546   2.290593   1.104115   2.230146
    11  H    3.126715   1.919053   1.058288   2.245820   3.382802
    12  H    2.260385   1.180438   2.363160   3.716868   4.138993
                    6          7          8          9         10
     6  C    0.000000
     7  H    2.226513   0.000000
     8  H    1.086477   2.640189   0.000000
     9  H    2.235638   4.458249   2.283743   0.000000
    10  H    3.456198   5.157178   4.244026   2.728923   0.000000
    11  H    3.635056   4.058798   4.718980   4.516355   2.770260
    12  H    3.506402   2.519706   4.445116   5.342584   4.649098
                   11         12
    11  H    0.000000
    12  H    2.344232   0.000000
 Stoichiometry    C6H6
 Framework group  C1[X(C6H6)]
 Deg. of freedom    30
 Full point group                 C1      NOp   1
 Largest Abelian subgroup         C1      NOp   1
 Largest concise Abelian subgroup C1      NOp   1
                         Standard orientation:                         
 ---------------------------------------------------------------------
 Center     Atomic      Atomic             Coordinates (Angstroms)
 Number     Number       Type             X           Y           Z
 ---------------------------------------------------------------------
      1          6           0       -1.077360    0.876843    0.012785
      2          6           0       -1.434258   -0.463155   -0.027305
      3          6           0       -0.229156   -1.268481   -0.042284
      4          6           0        1.163787   -0.967294    0.132614
      5          6           0        1.372261    0.475731   -0.085333
      6          6           0        0.229099    1.299660   -0.005596
      7          1           0       -1.965357    1.609585    0.208117
      8          1           0        0.565584    2.332683    0.003017
      9          1           0        2.449631    1.042794   -0.042110
     10          1           0        2.027049   -1.651416    0.056280
     11          1           0       -0.672974   -2.216389   -0.198711
     12          1           0       -2.550168   -0.837083    0.064126
 ---------------------------------------------------------------------
 Rotational constants (GHZ):           6.0681838           5.0229755           2.7607068
 Standard basis: 6-31G(d,p) (6D, 7F)
 There are   120 symmetry adapted cartesian basis functions of A   symmetry.
 There are   120 symmetry adapted basis functions of A   symmetry.
   120 basis functions,   210 primitive gaussians,   120 cartesian basis functions
    21 alpha electrons       21 beta electrons
       nuclear repulsion energy       199.7375242597 Hartrees.
 NAtoms=   12 NActive=   12 NUniq=   12 SFac= 1.00D+00 NAtFMM=   60 NAOKFM=F Big=F
 Integral buffers will be    131072 words long.
 Regular integral format.
 Two-electron integral symmetry is turned on.
 One-electron integrals computed using PRISM.
 NBasis=   120 RedAO= T EigKep=  1.10D-03  NBF=   120
 NBsUse=   120 1.00D-06 EigRej= -1.00D+00 NBFU=   120
 ExpMin= 1.61D-01 ExpMax= 3.05D+03 ExpMxC= 4.57D+02 IAcc=3 IRadAn=         5 AccDes= 0.00D+00
 Harris functional with IExCor=  402 and IRadAn=       5 diagonalized for initial guess.
 HarFok:  IExCor=  402 AccDes= 0.00D+00 IRadAn=         5 IDoV= 1 UseB2=F ITyADJ=14
 ICtDFT=  3500011 ScaDFX=  1.000000  1.000000  1.000000  1.000000
 FoFCou: FMM=F IPFlag=           0 FMFlag=      100000 FMFlg1=           0
         NFxFlg=           0 DoJE=T BraDBF=F KetDBF=T FulRan=T
         wScrn=  0.000000 ICntrl=       500 IOpCl=  0 I1Cent=   200000004 NGrid=           0
         NMat0=    1 NMatS0=      1 NMatT0=    0 NMatD0=    1 NMtDS0=    0 NMtDT0=    0
 Petite list used in FoFCou.
 Keep R1 ints in memory in canonical form, NReq=30147728.
 Requested convergence on RMS density matrix=1.00D-08 within 128 cycles.
 Requested convergence on MAX density matrix=1.00D-06.
 Requested convergence on             energy=1.00D-06.
 No special actions if energy rises.
 Integral accuracy reduced to 1.0D-05 until final iterations.
 Initial convergence to 1.0D-05 achieved.  Increase integral accuracy.
 SCF Done:  E(RB3LYP) =  -232.186087840     A.U. after   14 cycles
            NFock= 14  Conv=0.47D-08     -V/T= 2.0125
 DoSCS=F DFT=T ScalE2(SS,OS)=  1.000000  1.000000
 ExpMin= 1.61D-01 ExpMax= 3.05D+03 ExpMxC= 4.57D+02 IAcc=3 IRadAn=         5 AccDes= 0.00D+00
 HarFok:  IExCor=  205 AccDes= 0.00D+00 IRadAn=         5 IDoV=-2 UseB2=F ITyADJ=14
 ICtDFT= 12500011 ScaDFX=  1.000000  1.000000  1.000000  1.000000
 Range of M.O.s used for correlation:     7   120
 NBasis=   120 NAE=    21 NBE=    21 NFC=     6 NFV=     0
 NROrb=    114 NOA=    15 NOB=    15 NVA=    99 NVB=    99
 Keep R1, R2, and R3 ints in memory in canonical form, NReq=84032236.
 Orbital symmetries:
       Occupied  (A) (A) (A) (A) (A) (A) (A) (A) (A) (A) (A) (A)
                 (A) (A) (A) (A) (A) (A) (A) (A) (A)
       Virtual   (A) (A) (A) (A) (A) (A) (A) (A) (A) (A) (A) (A)
                 (A) (A) (A) (A) (A) (A) (A) (A) (A) (A) (A) (A)
                 (A) (A) (A) (A) (A) (A) (A) (A) (A) (A) (A) (A)
                 (A) (A) (A) (A) (A) (A) (A) (A) (A) (A) (A) (A)
                 (A) (A) (A) (A) (A) (A) (A) (A) (A) (A) (A) (A)
                 (A) (A) (A) (A) (A) (A) (A) (A) (A) (A) (A) (A)
                 (A) (A) (A) (A) (A) (A) (A) (A) (A) (A) (A) (A)
                 (A) (A) (A) (A) (A) (A) (A) (A) (A) (A) (A) (A)
                 (A) (A) (A)
     4 initial guesses have been made.
 Convergence on wavefunction:    0.001000000000000
 Iteration     1 Dimension     4 NMult     0 NNew      4
 CISAX will form     4 AO SS matrices at one time.
 Iteration     2 Dimension     6 NMult     4 NNew      2
 Iteration     3 Dimension     8 NMult     6 NNew      2
 Iteration     4 Dimension    10 NMult     8 NNew      2
 Iteration     5 Dimension    12 NMult    10 NNew      2
 ***********************************************************************
 Excited states from <AA,BB:AA,BB> singles matrix:
 ***********************************************************************
 
 Ground to excited state transition densities written to RWF  633
 Ground to excited state transition electric dipole moments (Au):
       state          X           Y           Z        Dip. S.      Osc.
         1        -0.2933      0.0326      0.0076      0.0871      0.0109
 Ground to excited state transition velocity dipole moments (Au):
       state          X           Y           Z        Dip. S.      Osc.
         1         0.0586     -0.0071     -0.0006      0.0035      0.0124
 Ground to excited state transition magnetic dipole moments (Au):
       state          X           Y           Z
         1         0.0264      0.0049     -0.1392
 Ground to excited state transition velocity quadrupole moments (Au):
       state          XX          YY          ZZ          XY          XZ          YZ
         1         0.0088      0.0118     -0.0041     -0.0066     -0.0202     -0.0176
 <0|del|b> * <b|rxdel|0> + <0|del|b> * <b|delr+rdel|0>
 Rotatory Strengths (R) in cgs (10**-40 erg-esu-cm/Gauss)
       state          XX          YY          ZZ    R(velocity)    E-M Angle
         1        -0.1800      1.1198      5.0707      2.0035       79.03
 1/2[<0|r|b>*<b|rxdel|0> + (<0|rxdel|b>*<b|r|0>)*]
 Rotatory Strengths (R) in cgs (10**-40 erg-esu-cm/Gauss)
       state          XX          YY          ZZ     R(length)
         1         5.4815     -0.1140      0.7499      2.0391
  1/2[<0|del|b>*<b|r|0> + (<0|r|b>*<b|del|0>)*] (Au)
       state          X           Y           Z        Dip. S.   Osc.(frdel)
         1        -0.0172     -0.0002     -0.0000      0.0174      0.0116

 Excitation energies and oscillator strengths:
 
 Excited State   1:      Singlet-A      5.1034 eV  242.95 nm  f=0.0109  <S**2>=0.000
      20 -> 22        -0.13190
      20 -> 23         0.37861
      21 -> 22         0.56428
      21 -> 23         0.13923
 This state for optimization and/or second-order correction.
 Total Energy, E(TD-HF/TD-DFT) =  -231.998542232    
 Copying the excited state density for this state as the 1-particle RhoCI density.
 SavETr:  write IOETrn=   770 NScale= 10 NData=  16 NLR=1 NState=    1 LETran=      28.

 **********************************************************************

            Population analysis using the SCF Density.

 **********************************************************************

 Orbital symmetries:
       Occupied  (A) (A) (A) (A) (A) (A) (A) (A) (A) (A) (A) (A)
                 (A) (A) (A) (A) (A) (A) (A) (A) (A)
       Virtual   (A) (A) (A) (A) (A) (A) (A) (A) (A) (A) (A) (A)
                 (A) (A) (A) (A) (A) (A) (A) (A) (A) (A) (A) (A)
                 (A) (A) (A) (A) (A) (A) (A) (A) (A) (A) (A) (A)
                 (A) (A) (A) (A) (A) (A) (A) (A) (A) (A) (A) (A)
                 (A) (A) (A) (A) (A) (A) (A) (A) (A) (A) (A) (A)
                 (A) (A) (A) (A) (A) (A) (A) (A) (A) (A) (A) (A)
                 (A) (A) (A) (A) (A) (A) (A) (A) (A) (A) (A) (A)
                 (A) (A) (A) (A) (A) (A) (A) (A) (A) (A) (A) (A)
                 (A) (A) (A)
 The electronic state is 1-A.
 Alpha  occ. eigenvalues --  -10.21210 -10.21097 -10.20425 -10.19673 -10.19627
 Alpha  occ. eigenvalues --  -10.18665  -0.84187  -0.73934  -0.73089  -0.60091
 Alpha  occ. eigenvalues --   -0.58193  -0.50789  -0.44860  -0.44471  -0.41870
 Alpha  occ. eigenvalues --   -0.38626  -0.35648  -0.35203  -0.30529  -0.25051
 Alpha  occ. eigenvalues --   -0.23872
 Alpha virt. eigenvalues --   -0.01512  -0.00252   0.06832   0.10773   0.13280
 Alpha virt. eigenvalues --    0.14141   0.15637   0.17411   0.18360   0.25392
 Alpha virt. eigenvalues --    0.28681   0.29935   0.33280   0.45702   0.46202
 Alpha virt. eigenvalues --    0.52078   0.52729   0.54787   0.59001   0.59562
 Alpha virt. eigenvalues --    0.60120   0.60397   0.61643   0.63847   0.64415
 Alpha virt. eigenvalues --    0.65735   0.67017   0.73192   0.75798   0.77962
 Alpha virt. eigenvalues --    0.80086   0.82512   0.84382   0.88480   0.91014
 Alpha virt. eigenvalues --    0.92045   0.95747   1.02628   1.04563   1.08195
 Alpha virt. eigenvalues --    1.10355   1.17101   1.21712   1.26528   1.32099
 Alpha virt. eigenvalues --    1.35397   1.39751   1.43268   1.46592   1.52024
 Alpha virt. eigenvalues --    1.66750   1.72294   1.75558   1.79910   1.82086
 Alpha virt. eigenvalues --    1.88475   1.92731   1.94255   1.95352   2.00811
 Alpha virt. eigenvalues --    2.02237   2.04305   2.09131   2.18266   2.20885
 Alpha virt. eigenvalues --    2.25692   2.31153   2.32446   2.37372   2.38383
 Alpha virt. eigenvalues --    2.39199   2.39643   2.42764   2.43832   2.47024
 Alpha virt. eigenvalues --    2.48417   2.52498   2.53806   2.57800   2.65546
 Alpha virt. eigenvalues --    2.67298   2.69578   2.76742   2.87111   2.90324
 Alpha virt. eigenvalues --    3.03281   3.13382   3.15198   3.17554   3.29562
 Alpha virt. eigenvalues --    3.34984   3.61909   3.73733   4.10551   4.16360
 Alpha virt. eigenvalues --    4.19048   4.43266   4.48397   4.74723
          Condensed to atoms (all electrons):
               1          2          3          4          5          6
     1  C    4.774389   0.539583  -0.046253  -0.033986  -0.030696   0.567676
     2  C    0.539583   4.911806   0.505692  -0.028454  -0.033156  -0.046445
     3  C   -0.046253   0.505692   4.878335   0.529704  -0.029716  -0.049677
     4  C   -0.033986  -0.028454   0.529704   4.882695   0.485307  -0.049104
     5  C   -0.030696  -0.033156  -0.029716   0.485307   4.914643   0.537545
     6  C    0.567676  -0.046445  -0.049677  -0.049104   0.537545   4.795979
     7  H    0.350675  -0.050758   0.007388   0.000418   0.004492  -0.038291
     8  H   -0.039497   0.005362  -0.000118   0.006554  -0.054304   0.373101
     9  H    0.004234   0.000357   0.003286  -0.033183   0.346939  -0.032360
    10  H    0.000386   0.002295  -0.033441   0.370394  -0.040355   0.003688
    11  H    0.008213  -0.061938   0.356477  -0.039692   0.004420   0.001972
    12  H   -0.031141   0.363893  -0.029217   0.002002   0.000123   0.003030
               7          8          9         10         11         12
     1  C    0.350675  -0.039497   0.004234   0.000386   0.008213  -0.031141
     2  C   -0.050758   0.005362   0.000357   0.002295  -0.061938   0.363893
     3  C    0.007388  -0.000118   0.003286  -0.033441   0.356477  -0.029217
     4  C    0.000418   0.006554  -0.033183   0.370394  -0.039692   0.002002
     5  C    0.004492  -0.054304   0.346939  -0.040355   0.004420   0.000123
     6  C   -0.038291   0.373101  -0.032360   0.003688   0.001972   0.003030
     7  H    0.667263  -0.006581  -0.000087   0.000013  -0.000547  -0.004689
     8  H   -0.006581   0.640547  -0.009853  -0.000229   0.000006  -0.000118
     9  H   -0.000087  -0.009853   0.641151  -0.001778  -0.000124   0.000006
    10  H    0.000013  -0.000229  -0.001778   0.598231  -0.004250  -0.000034
    11  H   -0.000547   0.000006  -0.000124  -0.004250   0.663255  -0.006504
    12  H   -0.004689  -0.000118   0.000006  -0.000034  -0.006504   0.594391
 Mulliken charges:
               1
     1  C   -0.063583
     2  C   -0.108238
     3  C   -0.092461
     4  C   -0.092655
     5  C   -0.105243
     6  C   -0.067115
     7  H    0.070702
     8  H    0.085130
     9  H    0.081412
    10  H    0.105081
    11  H    0.078713
    12  H    0.108257
 Sum of Mulliken charges =  -0.00000
 Mulliken charges with hydrogens summed into heavy atoms:
               1
     1  C    0.007120
     2  C    0.000019
     3  C   -0.013748
     4  C    0.012426
     5  C   -0.023831
     6  C    0.018015
 Electronic spatial extent (au):  <R**2>=            472.5489
 Charge=             -0.0000 electrons
 Dipole moment (field-independent basis, Debye):
    X=             -0.0823    Y=             -0.0457    Z=              0.0518  Tot=              0.1074
 Quadrupole moment (field-independent basis, Debye-Ang):
   XX=            -30.2494   YY=            -33.2088   ZZ=            -39.0358
   XY=              0.7235   XZ=             -0.2937   YZ=              0.4081
 Traceless Quadrupole moment (field-independent basis, Debye-Ang):
   XX=              3.9152   YY=              0.9559   ZZ=             -4.8711
   XY=              0.7235   XZ=             -0.2937   YZ=              0.4081
 Octapole moment (field-independent basis, Debye-Ang**2):
  XXX=             -2.0709  YYY=              1.2549  ZZZ=             -0.0041  XYY=              1.5639
  XXY=             -2.0491  XXZ=              0.9586  XZZ=             -0.3280  YZZ=              0.0148
  YYZ=             -0.1764  XYZ=             -0.5225
 Hexadecapole moment (field-independent basis, Debye-Ang**3):
 XXXX=           -296.2863 YYYY=           -273.0497 ZZZZ=            -42.1670 XXXY=              3.4178
 XXXZ=             -2.3408 YYYX=              2.4233 YYYZ=              2.1650 ZZZX=             -0.1892
 ZZZY=              0.4839 XXYY=            -89.8921 XXZZ=            -68.5534 YYZZ=            -58.3791
 XXYZ=              0.6368 YYXZ=             -0.2695 ZZXY=             -0.0339
 N-N= 1.997375242597D+02 E-N=-9.362040844736D+02  KE= 2.293174103545D+02
 1\1\GINC-DESKTOP-PRN5QE3\SP\RB3LYP TD-FC\6-31G(d,p)\C6H6\SHOHEI\10-Nov
 -2023\0\\# TD=(NStates=1) B3LYP/6-31G(d,p)\\EMISPCT\\0,1\C,0,0.3767693
 578,1.3405832751,-0.0206158492\C,0,1.4394791938,0.4499405017,0.0239060
 188\C,0,0.9169103273,-0.9019118181,0.0454373927\C,0,-0.3957649894,-1.4
 576025819,-0.1268578812\C,0,-1.396342513,-0.396052125,0.0858310671\C,0
 ,-0.9351368631,0.9350742356,-0.000363496\H,0,0.681707247,2.4497846964,
 -0.2213375381\H,0,-1.8045790836,1.5865048139,-0.0122246359\H,0,-2.6038
 16741,-0.5520977065,0.0432712547\H,0,-0.7084250448,-2.5133858046,-0.04
 53976897\H,0,1.8251823337,-1.421260067,0.204473984\H,0,2.5673983741,0.
 7854825684,-0.0690718224\\Version=EM64L-G16RevB.01\State=1-A\HF=-232.1
 860878\RMSD=4.691e-09\PG=C01 [X(C6H6)]\\@


      TO SUSPECT YOUR OWN MORTALITY IS TO KNOW THE BEGINNING OF TERROR.
      TO LEARN IRREFUTABLY THAT YOU ARE MORTAL IS TO KNOW THE END
      OF TERROR.

                                                  -- JESSICA
                                                     CHILDREN OF DUNE
                                                     BY FRANK HERBERT
 Job cpu time:       0 days  0 hours  3 minutes  5.8 seconds.
 Elapsed time:       0 days  0 hours  0 minutes 47.1 seconds.
 File lengths (MBytes):  RWF=    116 Int=      0 D2E=      0 Chk=      3 Scr=      1
 Normal termination of Gaussian 16 at Fri Nov 10 21:45:06 2023.
