 Entering Gaussian System, Link 0=g16
 Input=Geometry-146-.com
 Output=Geometry-146-.log
 Initial command:
 /home/shohei/gaussian/g16/l1.exe "/home/shohei/gaussian/scratch/Gau-24793.inp" -scrdir="/home/shohei/gaussian/scratch/"
 Entering Link 1 = /home/shohei/gaussian/g16/l1.exe PID=     24795.
  
 Copyright (c) 1988-2017, Gaussian, Inc.  All Rights Reserved.
  
 This is part of the Gaussian(R) 16 program.  It is based on
 the Gaussian(R) 09 system (copyright 2009, Gaussian, Inc.),
 the Gaussian(R) 03 system (copyright 2003, Gaussian, Inc.),
 the Gaussian(R) 98 system (copyright 1998, Gaussian, Inc.),
 the Gaussian(R) 94 system (copyright 1995, Gaussian, Inc.),
 the Gaussian 92(TM) system (copyright 1992, Gaussian, Inc.),
 the Gaussian 90(TM) system (copyright 1990, Gaussian, Inc.),
 the Gaussian 88(TM) system (copyright 1988, Gaussian, Inc.),
 the Gaussian 86(TM) system (copyright 1986, Carnegie Mellon
 University), and the Gaussian 82(TM) system (copyright 1983,
 Carnegie Mellon University). Gaussian is a federally registered
 trademark of Gaussian, Inc.
  
 This software contains proprietary and confidential information,
 including trade secrets, belonging to Gaussian, Inc.
  
 This software is provided under written license and may be
 used, copied, transmitted, or stored only in accord with that
 written license.
  
 The following legend is applicable only to US Government
 contracts under FAR:
  
                    RESTRICTED RIGHTS LEGEND
  
 Use, reproduction and disclosure by the US Government is
 subject to restrictions as set forth in subparagraphs (a)
 and (c) of the Commercial Computer Software - Restricted
 Rights clause in FAR 52.227-19.
  
 Gaussian, Inc.
 340 Quinnipiac St., Bldg. 40, Wallingford CT 06492
  
  
 ---------------------------------------------------------------
 Warning -- This program may not be used in any manner that
 competes with the business of Gaussian, Inc. or will provide
 assistance to any competitor of Gaussian, Inc.  The licensee
 of this program is prohibited from giving any competitor of
 Gaussian, Inc. access to this program.  By using this program,
 the user acknowledges that Gaussian, Inc. is engaged in the
 business of creating and licensing software in the field of
 computational chemistry and represents and warrants to the
 licensee that it is not a competitor of Gaussian, Inc. and that
 it will not use this program in any manner prohibited above.
 ---------------------------------------------------------------
  

 Cite this work as:
 Gaussian 16, Revision B.01,
 M. J. Frisch, G. W. Trucks, H. B. Schlegel, G. E. Scuseria, 
 M. A. Robb, J. R. Cheeseman, G. Scalmani, V. Barone, 
 G. A. Petersson, H. Nakatsuji, X. Li, M. Caricato, A. V. Marenich, 
 J. Bloino, B. G. Janesko, R. Gomperts, B. Mennucci, H. P. Hratchian, 
 J. V. Ortiz, A. F. Izmaylov, J. L. Sonnenberg, D. Williams-Young, 
 F. Ding, F. Lipparini, F. Egidi, J. Goings, B. Peng, A. Petrone, 
 T. Henderson, D. Ranasinghe, V. G. Zakrzewski, J. Gao, N. Rega, 
 G. Zheng, W. Liang, M. Hada, M. Ehara, K. Toyota, R. Fukuda, 
 J. Hasegawa, M. Ishida, T. Nakajima, Y. Honda, O. Kitao, H. Nakai, 
 T. Vreven, K. Throssell, J. A. Montgomery, Jr., J. E. Peralta, 
 F. Ogliaro, M. J. Bearpark, J. J. Heyd, E. N. Brothers, K. N. Kudin, 
 V. N. Staroverov, T. A. Keith, R. Kobayashi, J. Normand, 
 K. Raghavachari, A. P. Rendell, J. C. Burant, S. S. Iyengar, 
 J. Tomasi, M. Cossi, J. M. Millam, M. Klene, C. Adamo, R. Cammi, 
 J. W. Ochterski, R. L. Martin, K. Morokuma, O. Farkas, 
 J. B. Foresman, and D. J. Fox, Gaussian, Inc., Wallingford CT, 2016.
 
 ******************************************
 Gaussian 16:  EM64L-G16RevB.01 20-Dec-2017
                10-Nov-2023 
 ******************************************
 %nproc=4
 Will use up to    4 processors via shared memory.
 %Mem=2Gb
 ---------------------------------
 # TD=(NStates=1) B3LYP/6-31G(d,p)
 ---------------------------------
 1/38=1,172=1/1;
 2/12=2,17=6,18=5,40=1/2;
 3/5=1,6=6,7=101,11=9,25=1,30=1,74=-5/1,2,3,8;
 4//1;
 5/5=2,38=5/2;
 8/6=1,10=2,108=1/1;
 9/41=1,42=1,70=2/14;
 6/7=2,8=2,9=2,10=2/1;
 99/5=1,9=1/99;
 -------
 EMISPCT
 -------
 Symbolic Z-matrix:
 Charge =  0 Multiplicity = 1
 6                     0.38803   1.28892  -0.03587 
 6                     1.4441    0.43044  -0.05271 
 6                     1.04153  -0.96001   0.11448 
 6                    -0.36917  -1.38591  -0.08835 
 6                    -1.44622  -0.34693  -0.0371 
 6                    -1.0457    0.96282   0.06477 
 1                     0.61135   2.35623  -0.01129 
 1                    -1.8442    1.82806   0.22543 
 1                    -2.38227  -0.71091   0.10387 
 1                    -0.61785  -2.43646   0.06607 
 1                     1.74307  -1.728     0.15161 
 1                     2.38777   0.80467  -0.06039 
 
                          Input orientation:                          
 ---------------------------------------------------------------------
 Center     Atomic      Atomic             Coordinates (Angstroms)
 Number     Number       Type             X           Y           Z
 ---------------------------------------------------------------------
      1          6           0        0.388032    1.288924   -0.035870
      2          6           0        1.444096    0.430435   -0.052709
      3          6           0        1.041527   -0.960014    0.114485
      4          6           0       -0.369173   -1.385906   -0.088348
      5          6           0       -1.446223   -0.346929   -0.037105
      6          6           0       -1.045703    0.962817    0.064768
      7          1           0        0.611350    2.356234   -0.011289
      8          1           0       -1.844202    1.828056    0.225426
      9          1           0       -2.382269   -0.710907    0.103874
     10          1           0       -0.617846   -2.436464    0.066072
     11          1           0        1.743068   -1.727995    0.151613
     12          1           0        2.387775    0.804674   -0.060391
 ---------------------------------------------------------------------
                    Distance matrix (angstroms):
                    1          2          3          4          5
     1  C    0.000000
     2  C    1.361087   0.000000
     3  C    2.346782   1.457177   0.000000
     4  C    2.780437   2.566770   1.487481   0.000000
     5  C    2.457745   2.993072   2.566662   1.497377   0.000000
     6  C    1.473794   2.548790   2.838358   2.449007   1.373400
     7  H    1.090699   2.098542   3.346396   3.869234   3.397258
     8  H    2.311236   3.583798   4.014109   3.550171   2.226627
     9  H    3.419564   3.996029   3.432862   2.131930   1.014168
    10  H    3.860142   3.533387   2.221658   1.090576   2.250113
    11  H    3.312563   2.188596   1.040833   2.153177   3.480595
    12  H    2.057686   1.015206   2.226452   3.521389   4.003283
                    6          7          8          9         10
     6  C    0.000000
     7  H    2.166384   0.000000
     8  H    1.188297   2.522844   0.000000
     9  H    2.142263   4.287466   2.598196   0.000000
    10  H    3.426102   4.948419   4.440210   2.468230   0.000000
    11  H    3.876243   4.241255   5.051679   4.249135   2.466407
    12  H    3.439396   2.359117   4.363328   5.007723   4.422073
                   11         12
    11  H    0.000000
    12  H    2.622023   0.000000
 Stoichiometry    C6H6
 Framework group  C1[X(C6H6)]
 Deg. of freedom    30
 Full point group                 C1      NOp   1
 Largest Abelian subgroup         C1      NOp   1
 Largest concise Abelian subgroup C1      NOp   1
                         Standard orientation:                         
 ---------------------------------------------------------------------
 Center     Atomic      Atomic             Coordinates (Angstroms)
 Number     Number       Type             X           Y           Z
 ---------------------------------------------------------------------
      1          6           0       -0.613124   -1.197362   -0.039166
      2          6           0       -1.498529   -0.163694   -0.051178
      3          6           0       -0.852687    1.132208    0.112809
      4          6           0        0.610375    1.298725   -0.097720
      5          6           0        1.484300    0.083721   -0.051271
      6          6           0        0.856339   -1.133188    0.053730
      7          1           0       -1.023757   -2.207460   -0.012572
      8          1           0        1.487895   -2.127413    0.210908
      9          1           0        2.471111    0.274240    0.084533
     10          1           0        1.043899    2.287776    0.054566
     11          1           0       -1.405218    2.013360    0.152986
     12          1           0       -2.493984   -0.362961   -0.053639
 ---------------------------------------------------------------------
 Rotational constants (GHZ):           5.7339497           5.0967407           2.7116181
 Standard basis: 6-31G(d,p) (6D, 7F)
 There are   120 symmetry adapted cartesian basis functions of A   symmetry.
 There are   120 symmetry adapted basis functions of A   symmetry.
   120 basis functions,   210 primitive gaussians,   120 cartesian basis functions
    21 alpha electrons       21 beta electrons
       nuclear repulsion energy       198.7757558094 Hartrees.
 NAtoms=   12 NActive=   12 NUniq=   12 SFac= 1.00D+00 NAtFMM=   60 NAOKFM=F Big=F
 Integral buffers will be    131072 words long.
 Regular integral format.
 Two-electron integral symmetry is turned on.
 One-electron integrals computed using PRISM.
 NBasis=   120 RedAO= T EigKep=  9.83D-04  NBF=   120
 NBsUse=   120 1.00D-06 EigRej= -1.00D+00 NBFU=   120
 ExpMin= 1.61D-01 ExpMax= 3.05D+03 ExpMxC= 4.57D+02 IAcc=3 IRadAn=         5 AccDes= 0.00D+00
 Harris functional with IExCor=  402 and IRadAn=       5 diagonalized for initial guess.
 HarFok:  IExCor=  402 AccDes= 0.00D+00 IRadAn=         5 IDoV= 1 UseB2=F ITyADJ=14
 ICtDFT=  3500011 ScaDFX=  1.000000  1.000000  1.000000  1.000000
 FoFCou: FMM=F IPFlag=           0 FMFlag=      100000 FMFlg1=           0
         NFxFlg=           0 DoJE=T BraDBF=F KetDBF=T FulRan=T
         wScrn=  0.000000 ICntrl=       500 IOpCl=  0 I1Cent=   200000004 NGrid=           0
         NMat0=    1 NMatS0=      1 NMatT0=    0 NMatD0=    1 NMtDS0=    0 NMtDT0=    0
 Petite list used in FoFCou.
 Keep R1 ints in memory in canonical form, NReq=30147728.
 Requested convergence on RMS density matrix=1.00D-08 within 128 cycles.
 Requested convergence on MAX density matrix=1.00D-06.
 Requested convergence on             energy=1.00D-06.
 No special actions if energy rises.
 Integral accuracy reduced to 1.0D-05 until final iterations.
 Initial convergence to 1.0D-05 achieved.  Increase integral accuracy.
 SCF Done:  E(RB3LYP) =  -232.208691046     A.U. after   14 cycles
            NFock= 14  Conv=0.29D-08     -V/T= 2.0115
 DoSCS=F DFT=T ScalE2(SS,OS)=  1.000000  1.000000
 ExpMin= 1.61D-01 ExpMax= 3.05D+03 ExpMxC= 4.57D+02 IAcc=3 IRadAn=         5 AccDes= 0.00D+00
 HarFok:  IExCor=  205 AccDes= 0.00D+00 IRadAn=         5 IDoV=-2 UseB2=F ITyADJ=14
 ICtDFT= 12500011 ScaDFX=  1.000000  1.000000  1.000000  1.000000
 Range of M.O.s used for correlation:     7   120
 NBasis=   120 NAE=    21 NBE=    21 NFC=     6 NFV=     0
 NROrb=    114 NOA=    15 NOB=    15 NVA=    99 NVB=    99
 Keep R1, R2, and R3 ints in memory in canonical form, NReq=84032236.
 Orbital symmetries:
       Occupied  (A) (A) (A) (A) (A) (A) (A) (A) (A) (A) (A) (A)
                 (A) (A) (A) (A) (A) (A) (A) (A) (A)
       Virtual   (A) (A) (A) (A) (A) (A) (A) (A) (A) (A) (A) (A)
                 (A) (A) (A) (A) (A) (A) (A) (A) (A) (A) (A) (A)
                 (A) (A) (A) (A) (A) (A) (A) (A) (A) (A) (A) (A)
                 (A) (A) (A) (A) (A) (A) (A) (A) (A) (A) (A) (A)
                 (A) (A) (A) (A) (A) (A) (A) (A) (A) (A) (A) (A)
                 (A) (A) (A) (A) (A) (A) (A) (A) (A) (A) (A) (A)
                 (A) (A) (A) (A) (A) (A) (A) (A) (A) (A) (A) (A)
                 (A) (A) (A) (A) (A) (A) (A) (A) (A) (A) (A) (A)
                 (A) (A) (A)
     4 initial guesses have been made.
 Convergence on wavefunction:    0.001000000000000
 Iteration     1 Dimension     4 NMult     0 NNew      4
 CISAX will form     4 AO SS matrices at one time.
 New state      1 was old state      2
 Iteration     2 Dimension     6 NMult     4 NNew      2
 Iteration     3 Dimension     8 NMult     6 NNew      2
 Iteration     4 Dimension    10 NMult     8 NNew      2
 Iteration     5 Dimension    12 NMult    10 NNew      2
 ***********************************************************************
 Excited states from <AA,BB:AA,BB> singles matrix:
 ***********************************************************************
 
 Ground to excited state transition densities written to RWF  633
 Ground to excited state transition electric dipole moments (Au):
       state          X           Y           Z        Dip. S.      Osc.
         1        -0.0365      0.1493      0.0002      0.0236      0.0029
 Ground to excited state transition velocity dipole moments (Au):
       state          X           Y           Z        Dip. S.      Osc.
         1         0.0084     -0.0304     -0.0000      0.0010      0.0036
 Ground to excited state transition magnetic dipole moments (Au):
       state          X           Y           Z
         1        -0.0080     -0.0113     -0.0581
 Ground to excited state transition velocity quadrupole moments (Au):
       state          XX          YY          ZZ          XY          XZ          YZ
         1        -0.0037     -0.0112      0.0060      0.0020     -0.0159     -0.0132
 <0|del|b> * <b|rxdel|0> + <0|del|b> * <b|delr+rdel|0>
 Rotatory Strengths (R) in cgs (10**-40 erg-esu-cm/Gauss)
       state          XX          YY          ZZ    R(velocity)    E-M Angle
         1        -0.2610     -0.3329      1.6491      0.3517       81.51
 1/2[<0|r|b>*<b|rxdel|0> + (<0|rxdel|b>*<b|r|0>)*]
 Rotatory Strengths (R) in cgs (10**-40 erg-esu-cm/Gauss)
       state          XX          YY          ZZ     R(length)
         1        -0.2051      1.1934      0.0068      0.3317
  1/2[<0|del|b>*<b|r|0> + (<0|r|b>*<b|del|0>)*] (Au)
       state          X           Y           Z        Dip. S.   Osc.(frdel)
         1        -0.0003     -0.0045     -0.0000      0.0048      0.0032

 Excitation energies and oscillator strengths:
 
 Excited State   1:      Singlet-A      5.0703 eV  244.53 nm  f=0.0029  <S**2>=0.000
      20 -> 22         0.45200
      21 -> 23         0.54283
 This state for optimization and/or second-order correction.
 Total Energy, E(TD-HF/TD-DFT) =  -232.022361865    
 Copying the excited state density for this state as the 1-particle RhoCI density.
 SavETr:  write IOETrn=   770 NScale= 10 NData=  16 NLR=1 NState=    1 LETran=      28.

 **********************************************************************

            Population analysis using the SCF Density.

 **********************************************************************

 Orbital symmetries:
       Occupied  (A) (A) (A) (A) (A) (A) (A) (A) (A) (A) (A) (A)
                 (A) (A) (A) (A) (A) (A) (A) (A) (A)
       Virtual   (A) (A) (A) (A) (A) (A) (A) (A) (A) (A) (A) (A)
                 (A) (A) (A) (A) (A) (A) (A) (A) (A) (A) (A) (A)
                 (A) (A) (A) (A) (A) (A) (A) (A) (A) (A) (A) (A)
                 (A) (A) (A) (A) (A) (A) (A) (A) (A) (A) (A) (A)
                 (A) (A) (A) (A) (A) (A) (A) (A) (A) (A) (A) (A)
                 (A) (A) (A) (A) (A) (A) (A) (A) (A) (A) (A) (A)
                 (A) (A) (A) (A) (A) (A) (A) (A) (A) (A) (A) (A)
                 (A) (A) (A) (A) (A) (A) (A) (A) (A) (A) (A) (A)
                 (A) (A) (A)
 The electronic state is 1-A.
 Alpha  occ. eigenvalues --  -10.20446 -10.20374 -10.19892 -10.19231 -10.19208
 Alpha  occ. eigenvalues --  -10.18951  -0.83052  -0.74726  -0.71807  -0.60096
 Alpha  occ. eigenvalues --   -0.59160  -0.51163  -0.47813  -0.43076  -0.42436
 Alpha  occ. eigenvalues --   -0.39504  -0.34781  -0.34331  -0.33333  -0.25161
 Alpha  occ. eigenvalues --   -0.23157
 Alpha virt. eigenvalues --   -0.01368  -0.00517   0.09051   0.13187   0.14189
 Alpha virt. eigenvalues --    0.15111   0.16919   0.18372   0.19176   0.26405
 Alpha virt. eigenvalues --    0.27447   0.29004   0.32000   0.46145   0.47173
 Alpha virt. eigenvalues --    0.52069   0.52911   0.54745   0.57492   0.58790
 Alpha virt. eigenvalues --    0.59831   0.60409   0.60911   0.61855   0.64609
 Alpha virt. eigenvalues --    0.66336   0.66637   0.72867   0.78391   0.80368
 Alpha virt. eigenvalues --    0.84479   0.85755   0.88740   0.89914   0.92724
 Alpha virt. eigenvalues --    0.93925   0.94336   1.03821   1.06500   1.07696
 Alpha virt. eigenvalues --    1.10345   1.12863   1.19181   1.29861   1.33104
 Alpha virt. eigenvalues --    1.36642   1.40120   1.42583   1.47213   1.52226
 Alpha virt. eigenvalues --    1.66440   1.70929   1.78266   1.83531   1.85576
 Alpha virt. eigenvalues --    1.89395   1.91031   1.94954   1.97377   1.99414
 Alpha virt. eigenvalues --    2.00306   2.03368   2.06155   2.22998   2.23852
 Alpha virt. eigenvalues --    2.29398   2.33648   2.35338   2.39645   2.40092
 Alpha virt. eigenvalues --    2.41876   2.44160   2.46504   2.49124   2.50814
 Alpha virt. eigenvalues --    2.51342   2.53147   2.55807   2.60813   2.66439
 Alpha virt. eigenvalues --    2.72618   2.76613   2.77182   2.98163   3.01508
 Alpha virt. eigenvalues --    3.06697   3.17075   3.31142   3.33412   3.36607
 Alpha virt. eigenvalues --    3.46469   3.63792   3.88129   4.08419   4.15050
 Alpha virt. eigenvalues --    4.18472   4.41190   4.45708   4.75214
          Condensed to atoms (all electrons):
               1          2          3          4          5          6
     1  C    4.832163   0.560054  -0.031333  -0.041879  -0.028418   0.501408
     2  C    0.560054   4.798989   0.491581  -0.027265  -0.031265  -0.035360
     3  C   -0.031333   0.491581   4.880626   0.530773  -0.025367  -0.036219
     4  C   -0.041879  -0.027265   0.530773   4.921722   0.480967  -0.038456
     5  C   -0.028418  -0.031265  -0.025367   0.480967   4.812577   0.560442
     6  C    0.501408  -0.035360  -0.036219  -0.038456   0.560442   4.846804
     7  H    0.365402  -0.049374   0.006342   0.000629   0.005044  -0.042578
     8  H   -0.033208   0.003580   0.000144   0.004135  -0.041605   0.358611
     9  H    0.004812   0.000489   0.004160  -0.046457   0.376486  -0.042125
    10  H    0.000287   0.003465  -0.038205   0.367832  -0.038124   0.004163
    11  H    0.005700  -0.044376   0.367868  -0.043726   0.004412   0.000808
    12  H   -0.044160   0.384232  -0.044251   0.003606  -0.000026   0.005051
               7          8          9         10         11         12
     1  C    0.365402  -0.033208   0.004812   0.000287   0.005700  -0.044160
     2  C   -0.049374   0.003580   0.000489   0.003465  -0.044376   0.384232
     3  C    0.006342   0.000144   0.004160  -0.038205   0.367868  -0.044251
     4  C    0.000629   0.004135  -0.046457   0.367832  -0.043726   0.003606
     5  C    0.005044  -0.041605   0.376486  -0.038124   0.004412  -0.000026
     6  C   -0.042578   0.358611  -0.042125   0.004163   0.000808   0.005051
     7  H    0.652036  -0.005368  -0.000189   0.000005  -0.000259  -0.008910
     8  H   -0.005368   0.634171  -0.004892  -0.000133   0.000008  -0.000115
     9  H   -0.000189  -0.004892   0.621629  -0.004538  -0.000172   0.000016
    10  H    0.000005  -0.000133  -0.004538   0.618252  -0.005061  -0.000102
    11  H   -0.000259   0.000008  -0.000172  -0.005061   0.633652  -0.004066
    12  H   -0.008910  -0.000115   0.000016  -0.000102  -0.004066   0.617515
 Mulliken charges:
               1
     1  C   -0.090828
     2  C   -0.054750
     3  C   -0.106121
     4  C   -0.111882
     5  C   -0.075124
     6  C   -0.082549
     7  H    0.077220
     8  H    0.084672
     9  H    0.090782
    10  H    0.092157
    11  H    0.085213
    12  H    0.091209
 Sum of Mulliken charges =  -0.00000
 Mulliken charges with hydrogens summed into heavy atoms:
               1
     1  C   -0.013607
     2  C    0.036459
     3  C   -0.020908
     4  C   -0.019725
     5  C    0.015658
     6  C    0.002122
 Electronic spatial extent (au):  <R**2>=            475.7512
 Charge=             -0.0000 electrons
 Dipole moment (field-independent basis, Debye):
    X=             -0.0550    Y=             -0.0060    Z=              0.2787  Tot=              0.2841
 Quadrupole moment (field-independent basis, Debye-Ang):
   XX=            -30.7560   YY=            -31.9113   ZZ=            -38.8659
   XY=              0.3653   XZ=              0.4112   YZ=              0.0973
 Traceless Quadrupole moment (field-independent basis, Debye-Ang):
   XX=              3.0884   YY=              1.9331   ZZ=             -5.0215
   XY=              0.3653   XZ=              0.4112   YZ=              0.0973
 Octapole moment (field-independent basis, Debye-Ang**2):
  XXX=             -1.3477  YYY=              0.9227  ZZZ=              0.3531  XYY=              0.7528
  XXY=             -0.1365  XXZ=              0.9642  XZZ=             -0.2701  YZZ=             -0.1192
  YYZ=              1.5077  XYZ=             -0.4824
 Hexadecapole moment (field-independent basis, Debye-Ang**3):
 XXXX=           -287.1513 YYYY=           -272.6091 ZZZZ=            -42.1356 XXXY=              3.9918
 XXXZ=              2.6046 YYYX=             -0.5272 YYYZ=              0.4781 ZZZX=              0.3950
 ZZZY=              0.2531 XXYY=            -93.5229 XXZZ=            -64.4220 YYZZ=            -61.2846
 XXYZ=              0.1388 YYXZ=              1.0387 ZZXY=              0.2466
 N-N= 1.987757558094D+02 E-N=-9.345117887230D+02  KE= 2.295595156193D+02
 1\1\GINC-DESKTOP-PRN5QE3\SP\RB3LYP TD-FC\6-31G(d,p)\C6H6\SHOHEI\10-Nov
 -2023\0\\# TD=(NStates=1) B3LYP/6-31G(d,p)\\EMISPCT\\0,1\C,0,0.3880322
 534,1.2889241039,-0.0358695022\C,0,1.4440957442,0.4304353228,-0.052709
 4491\C,0,1.0415267453,-0.9600139786,0.1144849292\C,0,-0.3691728668,-1.
 3859055474,-0.0883480512\C,0,-1.4462232918,-0.346928522,-0.0371048478\
 C,0,-1.0457028332,0.9628171264,0.0647675948\H,0,0.6113502158,2.3562335
 044,-0.0112885096\H,0,-1.8442023415,1.8280559433,0.2254264208\H,0,-2.3
 822685909,-0.710906924,0.10387428\H,0,-0.6178463615,-2.4364635469,0.06
 60721649\H,0,1.7430682877,-1.7279951093,0.1516134654\H,0,2.3877749556,
 0.804674208,-0.0603910279\\Version=EM64L-G16RevB.01\State=1-A\HF=-232.
 208691\RMSD=2.914e-09\PG=C01 [X(C6H6)]\\@


 THERE'S NOTHING SO GREAT AS THE GREAT OUTDOORS.

                                       -- ZIGGY
 Job cpu time:       0 days  0 hours  3 minutes 10.6 seconds.
 Elapsed time:       0 days  0 hours  0 minutes 48.2 seconds.
 File lengths (MBytes):  RWF=    116 Int=      0 D2E=      0 Chk=      3 Scr=      1
 Normal termination of Gaussian 16 at Fri Nov 10 21:33:12 2023.
