 Entering Gaussian System, Link 0=g16
 Input=Geometry-156-.com
 Output=Geometry-156-.log
 Initial command:
 /home/shohei/gaussian/g16/l1.exe "/home/shohei/gaussian/scratch/Gau-25597.inp" -scrdir="/home/shohei/gaussian/scratch/"
 Entering Link 1 = /home/shohei/gaussian/g16/l1.exe PID=     25599.
  
 Copyright (c) 1988-2017, Gaussian, Inc.  All Rights Reserved.
  
 This is part of the Gaussian(R) 16 program.  It is based on
 the Gaussian(R) 09 system (copyright 2009, Gaussian, Inc.),
 the Gaussian(R) 03 system (copyright 2003, Gaussian, Inc.),
 the Gaussian(R) 98 system (copyright 1998, Gaussian, Inc.),
 the Gaussian(R) 94 system (copyright 1995, Gaussian, Inc.),
 the Gaussian 92(TM) system (copyright 1992, Gaussian, Inc.),
 the Gaussian 90(TM) system (copyright 1990, Gaussian, Inc.),
 the Gaussian 88(TM) system (copyright 1988, Gaussian, Inc.),
 the Gaussian 86(TM) system (copyright 1986, Carnegie Mellon
 University), and the Gaussian 82(TM) system (copyright 1983,
 Carnegie Mellon University). Gaussian is a federally registered
 trademark of Gaussian, Inc.
  
 This software contains proprietary and confidential information,
 including trade secrets, belonging to Gaussian, Inc.
  
 This software is provided under written license and may be
 used, copied, transmitted, or stored only in accord with that
 written license.
  
 The following legend is applicable only to US Government
 contracts under FAR:
  
                    RESTRICTED RIGHTS LEGEND
  
 Use, reproduction and disclosure by the US Government is
 subject to restrictions as set forth in subparagraphs (a)
 and (c) of the Commercial Computer Software - Restricted
 Rights clause in FAR 52.227-19.
  
 Gaussian, Inc.
 340 Quinnipiac St., Bldg. 40, Wallingford CT 06492
  
  
 ---------------------------------------------------------------
 Warning -- This program may not be used in any manner that
 competes with the business of Gaussian, Inc. or will provide
 assistance to any competitor of Gaussian, Inc.  The licensee
 of this program is prohibited from giving any competitor of
 Gaussian, Inc. access to this program.  By using this program,
 the user acknowledges that Gaussian, Inc. is engaged in the
 business of creating and licensing software in the field of
 computational chemistry and represents and warrants to the
 licensee that it is not a competitor of Gaussian, Inc. and that
 it will not use this program in any manner prohibited above.
 ---------------------------------------------------------------
  

 Cite this work as:
 Gaussian 16, Revision B.01,
 M. J. Frisch, G. W. Trucks, H. B. Schlegel, G. E. Scuseria, 
 M. A. Robb, J. R. Cheeseman, G. Scalmani, V. Barone, 
 G. A. Petersson, H. Nakatsuji, X. Li, M. Caricato, A. V. Marenich, 
 J. Bloino, B. G. Janesko, R. Gomperts, B. Mennucci, H. P. Hratchian, 
 J. V. Ortiz, A. F. Izmaylov, J. L. Sonnenberg, D. Williams-Young, 
 F. Ding, F. Lipparini, F. Egidi, J. Goings, B. Peng, A. Petrone, 
 T. Henderson, D. Ranasinghe, V. G. Zakrzewski, J. Gao, N. Rega, 
 G. Zheng, W. Liang, M. Hada, M. Ehara, K. Toyota, R. Fukuda, 
 J. Hasegawa, M. Ishida, T. Nakajima, Y. Honda, O. Kitao, H. Nakai, 
 T. Vreven, K. Throssell, J. A. Montgomery, Jr., J. E. Peralta, 
 F. Ogliaro, M. J. Bearpark, J. J. Heyd, E. N. Brothers, K. N. Kudin, 
 V. N. Staroverov, T. A. Keith, R. Kobayashi, J. Normand, 
 K. Raghavachari, A. P. Rendell, J. C. Burant, S. S. Iyengar, 
 J. Tomasi, M. Cossi, J. M. Millam, M. Klene, C. Adamo, R. Cammi, 
 J. W. Ochterski, R. L. Martin, K. Morokuma, O. Farkas, 
 J. B. Foresman, and D. J. Fox, Gaussian, Inc., Wallingford CT, 2016.
 
 ******************************************
 Gaussian 16:  EM64L-G16RevB.01 20-Dec-2017
                10-Nov-2023 
 ******************************************
 %nproc=4
 Will use up to    4 processors via shared memory.
 %Mem=2Gb
 ---------------------------------
 # TD=(NStates=1) B3LYP/6-31G(d,p)
 ---------------------------------
 1/38=1,172=1/1;
 2/12=2,17=6,18=5,40=1/2;
 3/5=1,6=6,7=101,11=9,25=1,30=1,74=-5/1,2,3,8;
 4//1;
 5/5=2,38=5/2;
 8/6=1,10=2,108=1/1;
 9/41=1,42=1,70=2/14;
 6/7=2,8=2,9=2,10=2/1;
 99/5=1,9=1/99;
 -------
 EMISPCT
 -------
 Symbolic Z-matrix:
 Charge =  0 Multiplicity = 1
 6                     0.38358   1.38912   0.00352 
 6                     1.36781   0.42744  -0.02937 
 6                     0.98377  -0.92854  -0.00466 
 6                    -0.38555  -1.48061   0.02547 
 6                    -1.40562  -0.41226   0.01988 
 6                    -0.96092   0.99236  -0.0211 
 1                     0.57581   2.46702  -0.0263 
 1                    -1.55853   1.70241   0.10842 
 1                    -2.45338  -0.55518  -0.16922 
 1                    -0.60387  -2.48831  -0.00024 
 1                     1.79509  -1.77967  -0.14932 
 1                     2.47621   0.82188   0.32224 
 
                          Input orientation:                          
 ---------------------------------------------------------------------
 Center     Atomic      Atomic             Coordinates (Angstroms)
 Number     Number       Type             X           Y           Z
 ---------------------------------------------------------------------
      1          6           0        0.383580    1.389116    0.003517
      2          6           0        1.367810    0.427441   -0.029370
      3          6           0        0.983768   -0.928544   -0.004664
      4          6           0       -0.385552   -1.480611    0.025473
      5          6           0       -1.405621   -0.412263    0.019884
      6          6           0       -0.960917    0.992358   -0.021104
      7          1           0        0.575810    2.467016   -0.026301
      8          1           0       -1.558534    1.702408    0.108417
      9          1           0       -2.453376   -0.555185   -0.169218
     10          1           0       -0.603869   -2.488310   -0.000239
     11          1           0        1.795091   -1.779673   -0.149315
     12          1           0        2.476213    0.821881    0.322239
 ---------------------------------------------------------------------
                    Distance matrix (angstroms):
                    1          2          3          4          5
     1  C    0.000000
     2  C    1.376448   0.000000
     3  C    2.394127   1.409536   0.000000
     4  C    2.971091   2.591900   1.476728   0.000000
     5  C    2.538991   2.898180   2.444653   1.477139   0.000000
     6  C    1.402033   2.396283   2.733485   2.539448   1.473907
     7  H    1.095312   2.187954   3.420048   4.063331   3.495490
     8  H    1.970016   3.194999   3.660328   3.393285   2.122041
     9  H    3.443612   3.947983   3.461277   2.273811   1.074234
    10  H    4.001188   3.519939   2.225642   1.031397   2.225574
    11  H    3.472311   2.251290   1.184731   2.207984   3.484680
    12  H    2.191450   1.227913   2.323412   3.685002   4.084503
                    6          7          8          9         10
     6  C    0.000000
     7  H    2.129829   0.000000
     8  H    0.937066   2.271167   0.000000
     9  H    2.155055   4.281365   2.444289   0.000000
    10  H    3.498996   5.093877   4.299455   2.680710   0.000000
    11  H    3.911033   4.419971   4.841293   4.421453   2.505874
    12  H    3.458441   2.537614   4.135243   5.141857   4.533019
                   11         12
    11  H    0.000000
    12  H    2.730269   0.000000
 Stoichiometry    C6H6
 Framework group  C1[X(C6H6)]
 Deg. of freedom    30
 Full point group                 C1      NOp   1
 Largest Abelian subgroup         C1      NOp   1
 Largest concise Abelian subgroup C1      NOp   1
                         Standard orientation:                         
 ---------------------------------------------------------------------
 Center     Atomic      Atomic             Coordinates (Angstroms)
 Number     Number       Type             X           Y           Z
 ---------------------------------------------------------------------
      1          6           0       -1.370089   -0.437112   -0.007653
      2          6           0       -1.100169    0.912167   -0.042289
      3          6           0        0.245716    1.329529   -0.007697
      4          6           0        1.454730    0.482656    0.034923
      5          6           0        1.115240   -0.954936    0.030767
      6          6           0       -0.304352   -1.348006   -0.020788
      7          1           0       -2.378247   -0.863686   -0.044541
      8          1           0       -0.574884   -2.235716    0.109121
      9          1           0        1.807778   -1.755933   -0.150261
     10          1           0        2.418718    0.848925    0.016092
     11          1           0        0.518143    2.473260   -0.153475
     12          1           0       -2.037961    1.627366    0.299480
 ---------------------------------------------------------------------
 Rotational constants (GHZ):           5.7636239           5.1000720           2.7115129
 Standard basis: 6-31G(d,p) (6D, 7F)
 There are   120 symmetry adapted cartesian basis functions of A   symmetry.
 There are   120 symmetry adapted basis functions of A   symmetry.
   120 basis functions,   210 primitive gaussians,   120 cartesian basis functions
    21 alpha electrons       21 beta electrons
       nuclear repulsion energy       198.8611386780 Hartrees.
 NAtoms=   12 NActive=   12 NUniq=   12 SFac= 1.00D+00 NAtFMM=   60 NAOKFM=F Big=F
 Integral buffers will be    131072 words long.
 Regular integral format.
 Two-electron integral symmetry is turned on.
 One-electron integrals computed using PRISM.
 NBasis=   120 RedAO= T EigKep=  9.60D-04  NBF=   120
 NBsUse=   120 1.00D-06 EigRej= -1.00D+00 NBFU=   120
 ExpMin= 1.61D-01 ExpMax= 3.05D+03 ExpMxC= 4.57D+02 IAcc=3 IRadAn=         5 AccDes= 0.00D+00
 Harris functional with IExCor=  402 and IRadAn=       5 diagonalized for initial guess.
 HarFok:  IExCor=  402 AccDes= 0.00D+00 IRadAn=         5 IDoV= 1 UseB2=F ITyADJ=14
 ICtDFT=  3500011 ScaDFX=  1.000000  1.000000  1.000000  1.000000
 FoFCou: FMM=F IPFlag=           0 FMFlag=      100000 FMFlg1=           0
         NFxFlg=           0 DoJE=T BraDBF=F KetDBF=T FulRan=T
         wScrn=  0.000000 ICntrl=       500 IOpCl=  0 I1Cent=   200000004 NGrid=           0
         NMat0=    1 NMatS0=      1 NMatT0=    0 NMatD0=    1 NMtDS0=    0 NMtDT0=    0
 Petite list used in FoFCou.
 Keep R1 ints in memory in canonical form, NReq=30147728.
 Requested convergence on RMS density matrix=1.00D-08 within 128 cycles.
 Requested convergence on MAX density matrix=1.00D-06.
 Requested convergence on             energy=1.00D-06.
 No special actions if energy rises.
 Integral accuracy reduced to 1.0D-05 until final iterations.
 Initial convergence to 1.0D-05 achieved.  Increase integral accuracy.
 SCF Done:  E(RB3LYP) =  -232.186954302     A.U. after   14 cycles
            NFock= 14  Conv=0.48D-08     -V/T= 2.0116
 DoSCS=F DFT=T ScalE2(SS,OS)=  1.000000  1.000000
 ExpMin= 1.61D-01 ExpMax= 3.05D+03 ExpMxC= 4.57D+02 IAcc=3 IRadAn=         5 AccDes= 0.00D+00
 HarFok:  IExCor=  205 AccDes= 0.00D+00 IRadAn=         5 IDoV=-2 UseB2=F ITyADJ=14
 ICtDFT= 12500011 ScaDFX=  1.000000  1.000000  1.000000  1.000000
 Range of M.O.s used for correlation:     7   120
 NBasis=   120 NAE=    21 NBE=    21 NFC=     6 NFV=     0
 NROrb=    114 NOA=    15 NOB=    15 NVA=    99 NVB=    99
 Keep R1, R2, and R3 ints in memory in canonical form, NReq=84032236.
 Orbital symmetries:
       Occupied  (A) (A) (A) (A) (A) (A) (A) (A) (A) (A) (A) (A)
                 (A) (A) (A) (A) (A) (A) (A) (A) (A)
       Virtual   (A) (A) (A) (A) (A) (A) (A) (A) (A) (A) (A) (A)
                 (A) (A) (A) (A) (A) (A) (A) (A) (A) (A) (A) (A)
                 (A) (A) (A) (A) (A) (A) (A) (A) (A) (A) (A) (A)
                 (A) (A) (A) (A) (A) (A) (A) (A) (A) (A) (A) (A)
                 (A) (A) (A) (A) (A) (A) (A) (A) (A) (A) (A) (A)
                 (A) (A) (A) (A) (A) (A) (A) (A) (A) (A) (A) (A)
                 (A) (A) (A) (A) (A) (A) (A) (A) (A) (A) (A) (A)
                 (A) (A) (A) (A) (A) (A) (A) (A) (A) (A) (A) (A)
                 (A) (A) (A)
     4 initial guesses have been made.
 Convergence on wavefunction:    0.001000000000000
 Iteration     1 Dimension     4 NMult     0 NNew      4
 CISAX will form     4 AO SS matrices at one time.
 Iteration     2 Dimension     6 NMult     4 NNew      2
 Iteration     3 Dimension     8 NMult     6 NNew      2
 Iteration     4 Dimension    10 NMult     8 NNew      2
 Iteration     5 Dimension    12 NMult    10 NNew      2
 ***********************************************************************
 Excited states from <AA,BB:AA,BB> singles matrix:
 ***********************************************************************
 
 Ground to excited state transition densities written to RWF  633
 Ground to excited state transition electric dipole moments (Au):
       state          X           Y           Z        Dip. S.      Osc.
         1        -0.1617      0.0834     -0.0079      0.0332      0.0041
 Ground to excited state transition velocity dipole moments (Au):
       state          X           Y           Z        Dip. S.      Osc.
         1         0.0312     -0.0171      0.0012      0.0013      0.0046
 Ground to excited state transition magnetic dipole moments (Au):
       state          X           Y           Z
         1        -0.0491      0.0068      0.0639
 Ground to excited state transition velocity quadrupole moments (Au):
       state          XX          YY          ZZ          XY          XZ          YZ
         1        -0.0057      0.0011      0.0021     -0.0010     -0.0070     -0.0042
 <0|del|b> * <b|rxdel|0> + <0|del|b> * <b|delr+rdel|0>
 Rotatory Strengths (R) in cgs (10**-40 erg-esu-cm/Gauss)
       state          XX          YY          ZZ    R(velocity)    E-M Angle
         1        -0.3005     -3.0520     -2.6949     -2.0158      123.02
 1/2[<0|r|b>*<b|rxdel|0> + (<0|rxdel|b>*<b|r|0>)*]
 Rotatory Strengths (R) in cgs (10**-40 erg-esu-cm/Gauss)
       state          XX          YY          ZZ     R(length)
         1        -5.6207     -0.3991      0.3582     -1.8872
  1/2[<0|del|b>*<b|r|0> + (<0|r|b>*<b|del|0>)*] (Au)
       state          X           Y           Z        Dip. S.   Osc.(frdel)
         1        -0.0050     -0.0014     -0.0000      0.0065      0.0043

 Excitation energies and oscillator strengths:
 
 Excited State   1:      Singlet-A      4.9938 eV  248.28 nm  f=0.0041  <S**2>=0.000
      20 -> 22        -0.26559
      20 -> 23         0.34697
      21 -> 22         0.46284
      21 -> 23         0.30708
 This state for optimization and/or second-order correction.
 Total Energy, E(TD-HF/TD-DFT) =  -232.003434659    
 Copying the excited state density for this state as the 1-particle RhoCI density.
 SavETr:  write IOETrn=   770 NScale= 10 NData=  16 NLR=1 NState=    1 LETran=      28.

 **********************************************************************

            Population analysis using the SCF Density.

 **********************************************************************

 Orbital symmetries:
       Occupied  (A) (A) (A) (A) (A) (A) (A) (A) (A) (A) (A) (A)
                 (A) (A) (A) (A) (A) (A) (A) (A) (A)
       Virtual   (A) (A) (A) (A) (A) (A) (A) (A) (A) (A) (A) (A)
                 (A) (A) (A) (A) (A) (A) (A) (A) (A) (A) (A) (A)
                 (A) (A) (A) (A) (A) (A) (A) (A) (A) (A) (A) (A)
                 (A) (A) (A) (A) (A) (A) (A) (A) (A) (A) (A) (A)
                 (A) (A) (A) (A) (A) (A) (A) (A) (A) (A) (A) (A)
                 (A) (A) (A) (A) (A) (A) (A) (A) (A) (A) (A) (A)
                 (A) (A) (A) (A) (A) (A) (A) (A) (A) (A) (A) (A)
                 (A) (A) (A) (A) (A) (A) (A) (A) (A) (A) (A) (A)
                 (A) (A) (A)
 The electronic state is 1-A.
 Alpha  occ. eigenvalues --  -10.20930 -10.20629 -10.20556 -10.20351 -10.18974
 Alpha  occ. eigenvalues --  -10.17829  -0.83378  -0.73875  -0.72950  -0.59939
 Alpha  occ. eigenvalues --   -0.59736  -0.50947  -0.46930  -0.43076  -0.42478
 Alpha  occ. eigenvalues --   -0.39612  -0.35191  -0.34587  -0.32598  -0.24755
 Alpha  occ. eigenvalues --   -0.23574
 Alpha virt. eigenvalues --   -0.01441  -0.00873   0.07421   0.13113   0.14255
 Alpha virt. eigenvalues --    0.14788   0.15822   0.17112   0.20124   0.26198
 Alpha virt. eigenvalues --    0.28361   0.29937   0.30871   0.46869   0.47602
 Alpha virt. eigenvalues --    0.52333   0.52934   0.54285   0.58347   0.59370
 Alpha virt. eigenvalues --    0.59969   0.60673   0.61090   0.61972   0.63698
 Alpha virt. eigenvalues --    0.65947   0.66568   0.73649   0.75988   0.79925
 Alpha virt. eigenvalues --    0.81674   0.84383   0.88488   0.89569   0.92834
 Alpha virt. eigenvalues --    0.94630   0.96130   1.01824   1.04871   1.06967
 Alpha virt. eigenvalues --    1.10576   1.14208   1.20057   1.26618   1.32020
 Alpha virt. eigenvalues --    1.36451   1.39540   1.44251   1.45589   1.57981
 Alpha virt. eigenvalues --    1.68847   1.72242   1.75692   1.76598   1.87037
 Alpha virt. eigenvalues --    1.89642   1.90940   1.92276   1.96171   2.01875
 Alpha virt. eigenvalues --    2.03467   2.05009   2.06562   2.20000   2.23298
 Alpha virt. eigenvalues --    2.26446   2.29977   2.35042   2.39088   2.39612
 Alpha virt. eigenvalues --    2.40826   2.43133   2.45170   2.47432   2.51048
 Alpha virt. eigenvalues --    2.52787   2.54320   2.57339   2.62543   2.65318
 Alpha virt. eigenvalues --    2.71922   2.75297   2.77254   2.94344   2.98518
 Alpha virt. eigenvalues --    3.08226   3.10945   3.23070   3.31763   3.35488
 Alpha virt. eigenvalues --    3.50589   3.67400   3.93843   4.07998   4.15082
 Alpha virt. eigenvalues --    4.18083   4.41616   4.43824   4.75276
          Condensed to atoms (all electrons):
               1          2          3          4          5          6
     1  C    4.804498   0.527251  -0.043190  -0.027405  -0.025121   0.561137
     2  C    0.527251   4.852676   0.532397  -0.032386  -0.037453  -0.047390
     3  C   -0.043190   0.532397   4.873916   0.512181  -0.031396  -0.036328
     4  C   -0.027405  -0.032386   0.512181   4.854818   0.502598  -0.034887
     5  C   -0.025121  -0.037453  -0.031396   0.502598   4.893716   0.519437
     6  C    0.561137  -0.047390  -0.036328  -0.034887   0.519437   4.782622
     7  H    0.366302  -0.040857   0.004680   0.000310   0.004858  -0.041160
     8  H   -0.050230   0.009202   0.000379   0.005185  -0.050470   0.380434
     9  H    0.004220   0.000591   0.003790  -0.038842   0.366514  -0.040929
    10  H    0.000182   0.003666  -0.036898   0.379744  -0.040069   0.003309
    11  H    0.004198  -0.034472   0.351713  -0.044475   0.004229   0.000588
    12  H   -0.039332   0.351062  -0.030141   0.002412   0.000301   0.004523
               7          8          9         10         11         12
     1  C    0.366302  -0.050230   0.004220   0.000182   0.004198  -0.039332
     2  C   -0.040857   0.009202   0.000591   0.003666  -0.034472   0.351062
     3  C    0.004680   0.000379   0.003790  -0.036898   0.351713  -0.030141
     4  C    0.000310   0.005185  -0.038842   0.379744  -0.044475   0.002412
     5  C    0.004858  -0.050470   0.366514  -0.040069   0.004229   0.000301
     6  C   -0.041160   0.380434  -0.040929   0.003309   0.000588   0.004523
     7  H    0.631691  -0.009909  -0.000167   0.000011  -0.000147  -0.005356
     8  H   -0.009909   0.655632  -0.005630  -0.000151   0.000005  -0.000327
     9  H   -0.000167  -0.005630   0.620006  -0.002666  -0.000155   0.000010
    10  H    0.000011  -0.000151  -0.002666   0.598610  -0.004662  -0.000071
    11  H   -0.000147   0.000005  -0.000155  -0.004662   0.652984  -0.004566
    12  H   -0.005356  -0.000327   0.000010  -0.000071  -0.004566   0.638461
 Mulliken charges:
               1
     1  C   -0.082509
     2  C   -0.084289
     3  C   -0.101104
     4  C   -0.079254
     5  C   -0.107144
     6  C   -0.051356
     7  H    0.089744
     8  H    0.065880
     9  H    0.093257
    10  H    0.098994
    11  H    0.074758
    12  H    0.083022
 Sum of Mulliken charges =  -0.00000
 Mulliken charges with hydrogens summed into heavy atoms:
               1
     1  C    0.007235
     2  C   -0.001267
     3  C   -0.026345
     4  C    0.019740
     5  C   -0.013887
     6  C    0.014524
 Electronic spatial extent (au):  <R**2>=            476.2383
 Charge=             -0.0000 electrons
 Dipole moment (field-independent basis, Debye):
    X=              0.0695    Y=             -0.2599    Z=              0.0486  Tot=              0.2733
 Quadrupole moment (field-independent basis, Debye-Ang):
   XX=            -30.7470   YY=            -32.3504   ZZ=            -38.8433
   XY=              0.6246   XZ=             -0.7359   YZ=              0.1586
 Traceless Quadrupole moment (field-independent basis, Debye-Ang):
   XX=              3.2332   YY=              1.6299   ZZ=             -4.8631
   XY=              0.6246   XZ=             -0.7359   YZ=              0.1586
 Octapole moment (field-independent basis, Debye-Ang**2):
  XXX=              0.9664  YYY=             -3.4017  ZZZ=              0.0406  XYY=              0.6721
  XXY=             -0.1263  XXZ=              0.4608  XZZ=             -0.2582  YZZ=             -0.6566
  YYZ=             -0.0065  XYZ=             -0.4718
 Hexadecapole moment (field-independent basis, Debye-Ang**3):
 XXXX=           -292.4272 YYYY=           -276.8059 ZZZZ=            -41.6111 XXXY=              4.6915
 XXXZ=             -2.9802 YYYX=              2.1238 YYYZ=             -0.9964 ZZZX=             -0.6548
 ZZZY=              0.0564 XXYY=            -92.4092 XXZZ=            -65.5641 YYZZ=            -60.2322
 XXYZ=              2.7663 YYXZ=             -3.0550 ZZXY=              0.3569
 N-N= 1.988611386780D+02 E-N=-9.345830981106D+02  KE= 2.295162102093D+02
 1\1\GINC-DESKTOP-PRN5QE3\SP\RB3LYP TD-FC\6-31G(d,p)\C6H6\SHOHEI\10-Nov
 -2023\0\\# TD=(NStates=1) B3LYP/6-31G(d,p)\\EMISPCT\\0,1\C,0,0.3835797
 384,1.3891163332,0.0035171754\C,0,1.3678097732,0.4274406924,-0.0293695
 923\C,0,0.9837683899,-0.9285440508,-0.0046638619\C,0,-0.3855519726,-1.
 480611366,0.0254731424\C,0,-1.4056206021,-0.4122634103,0.0198837975\C,
 0,-0.9609174686,0.9923582928,-0.0211036733\H,0,0.5758095681,2.46701614
 83,-0.0263006421\H,0,-1.5585344995,1.7024084459,0.108417175\H,0,-2.453
 3761777,-0.5551846948,-0.1692182226\H,0,-0.6038691556,-2.4883102956,-0
 .0002387468\H,0,1.7950912718,-1.779672641,-0.1493151936\H,0,2.47621288
 94,0.8218808989,0.3222394642\\Version=EM64L-G16RevB.01\State=1-A\HF=-2
 32.1869543\RMSD=4.826e-09\PG=C01 [X(C6H6)]\\@


 "A LITTLE BIT GOES A LONG WAY"
 R.S. MULLIKEN AS QUOTED BY K. RUEDENBERG
 Job cpu time:       0 days  0 hours  3 minutes  9.5 seconds.
 Elapsed time:       0 days  0 hours  0 minutes 48.0 seconds.
 File lengths (MBytes):  RWF=    116 Int=      0 D2E=      0 Chk=      3 Scr=      1
 Normal termination of Gaussian 16 at Fri Nov 10 21:41:19 2023.
