 Entering Gaussian System, Link 0=g16
 Input=Geometry-306-.com
 Output=Geometry-306-.log
 Initial command:
 /home/shohei/gaussian/g16/l1.exe "/home/shohei/gaussian/scratch/Gau-17444.inp" -scrdir="/home/shohei/gaussian/scratch/"
 Entering Link 1 = /home/shohei/gaussian/g16/l1.exe PID=     17446.
  
 Copyright (c) 1988-2017, Gaussian, Inc.  All Rights Reserved.
  
 This is part of the Gaussian(R) 16 program.  It is based on
 the Gaussian(R) 09 system (copyright 2009, Gaussian, Inc.),
 the Gaussian(R) 03 system (copyright 2003, Gaussian, Inc.),
 the Gaussian(R) 98 system (copyright 1998, Gaussian, Inc.),
 the Gaussian(R) 94 system (copyright 1995, Gaussian, Inc.),
 the Gaussian 92(TM) system (copyright 1992, Gaussian, Inc.),
 the Gaussian 90(TM) system (copyright 1990, Gaussian, Inc.),
 the Gaussian 88(TM) system (copyright 1988, Gaussian, Inc.),
 the Gaussian 86(TM) system (copyright 1986, Carnegie Mellon
 University), and the Gaussian 82(TM) system (copyright 1983,
 Carnegie Mellon University). Gaussian is a federally registered
 trademark of Gaussian, Inc.
  
 This software contains proprietary and confidential information,
 including trade secrets, belonging to Gaussian, Inc.
  
 This software is provided under written license and may be
 used, copied, transmitted, or stored only in accord with that
 written license.
  
 The following legend is applicable only to US Government
 contracts under FAR:
  
                    RESTRICTED RIGHTS LEGEND
  
 Use, reproduction and disclosure by the US Government is
 subject to restrictions as set forth in subparagraphs (a)
 and (c) of the Commercial Computer Software - Restricted
 Rights clause in FAR 52.227-19.
  
 Gaussian, Inc.
 340 Quinnipiac St., Bldg. 40, Wallingford CT 06492
  
  
 ---------------------------------------------------------------
 Warning -- This program may not be used in any manner that
 competes with the business of Gaussian, Inc. or will provide
 assistance to any competitor of Gaussian, Inc.  The licensee
 of this program is prohibited from giving any competitor of
 Gaussian, Inc. access to this program.  By using this program,
 the user acknowledges that Gaussian, Inc. is engaged in the
 business of creating and licensing software in the field of
 computational chemistry and represents and warrants to the
 licensee that it is not a competitor of Gaussian, Inc. and that
 it will not use this program in any manner prohibited above.
 ---------------------------------------------------------------
  

 Cite this work as:
 Gaussian 16, Revision B.01,
 M. J. Frisch, G. W. Trucks, H. B. Schlegel, G. E. Scuseria, 
 M. A. Robb, J. R. Cheeseman, G. Scalmani, V. Barone, 
 G. A. Petersson, H. Nakatsuji, X. Li, M. Caricato, A. V. Marenich, 
 J. Bloino, B. G. Janesko, R. Gomperts, B. Mennucci, H. P. Hratchian, 
 J. V. Ortiz, A. F. Izmaylov, J. L. Sonnenberg, D. Williams-Young, 
 F. Ding, F. Lipparini, F. Egidi, J. Goings, B. Peng, A. Petrone, 
 T. Henderson, D. Ranasinghe, V. G. Zakrzewski, J. Gao, N. Rega, 
 G. Zheng, W. Liang, M. Hada, M. Ehara, K. Toyota, R. Fukuda, 
 J. Hasegawa, M. Ishida, T. Nakajima, Y. Honda, O. Kitao, H. Nakai, 
 T. Vreven, K. Throssell, J. A. Montgomery, Jr., J. E. Peralta, 
 F. Ogliaro, M. J. Bearpark, J. J. Heyd, E. N. Brothers, K. N. Kudin, 
 V. N. Staroverov, T. A. Keith, R. Kobayashi, J. Normand, 
 K. Raghavachari, A. P. Rendell, J. C. Burant, S. S. Iyengar, 
 J. Tomasi, M. Cossi, J. M. Millam, M. Klene, C. Adamo, R. Cammi, 
 J. W. Ochterski, R. L. Martin, K. Morokuma, O. Farkas, 
 J. B. Foresman, and D. J. Fox, Gaussian, Inc., Wallingford CT, 2016.
 
 ******************************************
 Gaussian 16:  EM64L-G16RevB.01 20-Dec-2017
                10-Nov-2023 
 ******************************************
 %nproc=4
 Will use up to    4 processors via shared memory.
 %Mem=2Gb
 ---------------------------------
 # TD=(NStates=1) B3LYP/6-31G(d,p)
 ---------------------------------
 1/38=1,172=1/1;
 2/12=2,17=6,18=5,40=1/2;
 3/5=1,6=6,7=101,11=9,25=1,30=1,74=-5/1,2,3,8;
 4//1;
 5/5=2,38=5/2;
 8/6=1,10=2,108=1/1;
 9/41=1,42=1,70=2/14;
 6/7=2,8=2,9=2,10=2/1;
 99/5=1,9=1/99;
 -------
 EMISPCT
 -------
 Symbolic Z-matrix:
 Charge =  0 Multiplicity = 1
 6                     0.34401   1.32159   0.0059 
 6                     1.45069   0.41458  -0.04105 
 6                     1.06548  -0.97328   0.06077 
 6                    -0.38424  -1.38696   0.00073 
 6                    -1.41926  -0.38051   0.00075 
 6                    -1.03036   0.98444  -0.00135 
 1                     0.88988   2.53002   0.00407 
 1                    -1.96707   1.80238  -0.0671 
 1                    -2.54828  -0.819     0.02159 
 1                    -0.74923  -2.3398   -0.13099 
 1                     1.71989  -1.68196  -0.30412 
 1                     2.36737   0.70532   0.12458 
 
                          Input orientation:                          
 ---------------------------------------------------------------------
 Center     Atomic      Atomic             Coordinates (Angstroms)
 Number     Number       Type             X           Y           Z
 ---------------------------------------------------------------------
      1          6           0        0.344005    1.321588    0.005901
      2          6           0        1.450688    0.414583   -0.041052
      3          6           0        1.065480   -0.973281    0.060768
      4          6           0       -0.384238   -1.386959    0.000735
      5          6           0       -1.419264   -0.380511    0.000748
      6          6           0       -1.030365    0.984435   -0.001347
      7          1           0        0.889883    2.530015    0.004066
      8          1           0       -1.967067    1.802383   -0.067099
      9          1           0       -2.548280   -0.818999    0.021593
     10          1           0       -0.749228   -2.339796   -0.130985
     11          1           0        1.719894   -1.681961   -0.304124
     12          1           0        2.367370    0.705319    0.124582
 ---------------------------------------------------------------------
                    Distance matrix (angstroms):
                    1          2          3          4          5
     1  C    0.000000
     2  C    1.431645   0.000000
     3  C    2.406234   1.443925   0.000000
     4  C    2.804744   2.571819   1.508780   0.000000
     5  C    2.450773   2.978346   2.555178   1.443682   0.000000
     6  C    1.415139   2.545964   2.868637   2.457844   1.419269
     7  H    1.326002   2.188970   3.508152   4.118990   3.715284
     8  H    2.361684   3.688864   4.113029   3.561159   2.251604
     9  H    3.598288   4.185378   3.617264   2.237430   1.211356
    10  H    3.823562   3.526233   2.279758   1.028817   2.074873
    11  H    3.318206   2.130065   1.031324   2.146470   3.411895
    12  H    2.118461   0.975842   2.125249   3.458946   3.941187
                    6          7          8          9         10
     6  C    0.000000
     7  H    2.464995   0.000000
     8  H    1.245301   2.949013   0.000000
     9  H    2.357322   4.799705   2.686507   0.000000
    10  H    3.338616   5.140037   4.317969   2.360655   0.000000
    11  H    3.842560   4.304026   5.078437   4.366704   2.561110
    12  H    3.411505   2.350959   4.475225   5.147598   4.364770
                   11         12
    11  H    0.000000
    12  H    2.510402   0.000000
 Stoichiometry    C6H6
 Framework group  C1[X(C6H6)]
 Deg. of freedom    30
 Full point group                 C1      NOp   1
 Largest Abelian subgroup         C1      NOp   1
 Largest concise Abelian subgroup C1      NOp   1
                         Standard orientation:                         
 ---------------------------------------------------------------------
 Center     Atomic      Atomic             Coordinates (Angstroms)
 Number     Number       Type             X           Y           Z
 ---------------------------------------------------------------------
      1          6           0       -0.721925    1.158108   -0.002153
      2          6           0       -1.510755   -0.035918    0.038586
      3          6           0       -0.732463   -1.247086   -0.072110
      4          6           0        0.774843   -1.213839   -0.014322
      5          6           0        1.465887    0.053690   -0.007499
      6          6           0        0.690685    1.242500    0.003325
      7          1           0       -1.600789    2.150977    0.007349
      8          1           0        1.343663    2.300472    0.074660
      9          1           0        2.674045   -0.031109   -0.030845
     10          1           0        1.405535   -2.016898    0.111330
     11          1           0       -1.147399   -2.119893    0.287983
     12          1           0       -2.472683   -0.028284   -0.125437
 ---------------------------------------------------------------------
 Rotational constants (GHZ):           5.6287957           5.0469253           2.6665073
 Standard basis: 6-31G(d,p) (6D, 7F)
 There are   120 symmetry adapted cartesian basis functions of A   symmetry.
 There are   120 symmetry adapted basis functions of A   symmetry.
   120 basis functions,   210 primitive gaussians,   120 cartesian basis functions
    21 alpha electrons       21 beta electrons
       nuclear repulsion energy       196.8436297500 Hartrees.
 NAtoms=   12 NActive=   12 NUniq=   12 SFac= 1.00D+00 NAtFMM=   60 NAOKFM=F Big=F
 Integral buffers will be    131072 words long.
 Regular integral format.
 Two-electron integral symmetry is turned on.
 One-electron integrals computed using PRISM.
 NBasis=   120 RedAO= T EigKep=  1.05D-03  NBF=   120
 NBsUse=   120 1.00D-06 EigRej= -1.00D+00 NBFU=   120
 ExpMin= 1.61D-01 ExpMax= 3.05D+03 ExpMxC= 4.57D+02 IAcc=3 IRadAn=         5 AccDes= 0.00D+00
 Harris functional with IExCor=  402 and IRadAn=       5 diagonalized for initial guess.
 HarFok:  IExCor=  402 AccDes= 0.00D+00 IRadAn=         5 IDoV= 1 UseB2=F ITyADJ=14
 ICtDFT=  3500011 ScaDFX=  1.000000  1.000000  1.000000  1.000000
 FoFCou: FMM=F IPFlag=           0 FMFlag=      100000 FMFlg1=           0
         NFxFlg=           0 DoJE=T BraDBF=F KetDBF=T FulRan=T
         wScrn=  0.000000 ICntrl=       500 IOpCl=  0 I1Cent=   200000004 NGrid=           0
         NMat0=    1 NMatS0=      1 NMatT0=    0 NMatD0=    1 NMtDS0=    0 NMtDT0=    0
 Petite list used in FoFCou.
 Keep R1 ints in memory in canonical form, NReq=30147728.
 Requested convergence on RMS density matrix=1.00D-08 within 128 cycles.
 Requested convergence on MAX density matrix=1.00D-06.
 Requested convergence on             energy=1.00D-06.
 No special actions if energy rises.
 Integral accuracy reduced to 1.0D-05 until final iterations.
 Initial convergence to 1.0D-05 achieved.  Increase integral accuracy.
 SCF Done:  E(RB3LYP) =  -232.160874270     A.U. after   13 cycles
            NFock= 13  Conv=0.53D-08     -V/T= 2.0132
 DoSCS=F DFT=T ScalE2(SS,OS)=  1.000000  1.000000
 ExpMin= 1.61D-01 ExpMax= 3.05D+03 ExpMxC= 4.57D+02 IAcc=3 IRadAn=         5 AccDes= 0.00D+00
 HarFok:  IExCor=  205 AccDes= 0.00D+00 IRadAn=         5 IDoV=-2 UseB2=F ITyADJ=14
 ICtDFT= 12500011 ScaDFX=  1.000000  1.000000  1.000000  1.000000
 Range of M.O.s used for correlation:     7   120
 NBasis=   120 NAE=    21 NBE=    21 NFC=     6 NFV=     0
 NROrb=    114 NOA=    15 NOB=    15 NVA=    99 NVB=    99
 Keep R1, R2, and R3 ints in memory in canonical form, NReq=84032236.
 Orbital symmetries:
       Occupied  (A) (A) (A) (A) (A) (A) (A) (A) (A) (A) (A) (A)
                 (A) (A) (A) (A) (A) (A) (A) (A) (A)
       Virtual   (A) (A) (A) (A) (A) (A) (A) (A) (A) (A) (A) (A)
                 (A) (A) (A) (A) (A) (A) (A) (A) (A) (A) (A) (A)
                 (A) (A) (A) (A) (A) (A) (A) (A) (A) (A) (A) (A)
                 (A) (A) (A) (A) (A) (A) (A) (A) (A) (A) (A) (A)
                 (A) (A) (A) (A) (A) (A) (A) (A) (A) (A) (A) (A)
                 (A) (A) (A) (A) (A) (A) (A) (A) (A) (A) (A) (A)
                 (A) (A) (A) (A) (A) (A) (A) (A) (A) (A) (A) (A)
                 (A) (A) (A) (A) (A) (A) (A) (A) (A) (A) (A) (A)
                 (A) (A) (A)
     4 initial guesses have been made.
 Convergence on wavefunction:    0.001000000000000
 Iteration     1 Dimension     4 NMult     0 NNew      4
 CISAX will form     4 AO SS matrices at one time.
 New state      1 was old state      2
 Iteration     2 Dimension     6 NMult     4 NNew      2
 Iteration     3 Dimension     8 NMult     6 NNew      2
 Iteration     4 Dimension    10 NMult     8 NNew      2
 Iteration     5 Dimension    12 NMult    10 NNew      2
 ***********************************************************************
 Excited states from <AA,BB:AA,BB> singles matrix:
 ***********************************************************************
 
 Ground to excited state transition densities written to RWF  633
 Ground to excited state transition electric dipole moments (Au):
       state          X           Y           Z        Dip. S.      Osc.
         1         0.1163      0.1229      0.0010      0.0286      0.0035
 Ground to excited state transition velocity dipole moments (Au):
       state          X           Y           Z        Dip. S.      Osc.
         1        -0.0221     -0.0243     -0.0005      0.0011      0.0039
 Ground to excited state transition magnetic dipole moments (Au):
       state          X           Y           Z
         1        -0.0099     -0.0018     -0.0326
 Ground to excited state transition velocity quadrupole moments (Au):
       state          XX          YY          ZZ          XY          XZ          YZ
         1        -0.0112     -0.0051      0.0030      0.0159      0.0066     -0.0053
 <0|del|b> * <b|rxdel|0> + <0|del|b> * <b|delr+rdel|0>
 Rotatory Strengths (R) in cgs (10**-40 erg-esu-cm/Gauss)
       state          XX          YY          ZZ    R(velocity)    E-M Angle
         1         0.4097      0.6886     -0.0269      0.3571       75.67
 1/2[<0|r|b>*<b|rxdel|0> + (<0|rxdel|b>*<b|r|0>)*]
 Rotatory Strengths (R) in cgs (10**-40 erg-esu-cm/Gauss)
       state          XX          YY          ZZ     R(length)
         1         0.8114      0.1587      0.0226      0.3309
  1/2[<0|del|b>*<b|r|0> + (<0|r|b>*<b|del|0>)*] (Au)
       state          X           Y           Z        Dip. S.   Osc.(frdel)
         1        -0.0026     -0.0030     -0.0000      0.0056      0.0037

 Excitation energies and oscillator strengths:
 
 Excited State   1:      Singlet-A      4.9860 eV  248.66 nm  f=0.0035  <S**2>=0.000
      20 -> 22        -0.35028
      20 -> 23         0.29042
      21 -> 22         0.38622
      21 -> 23         0.37876
 This state for optimization and/or second-order correction.
 Total Energy, E(TD-HF/TD-DFT) =  -231.977640719    
 Copying the excited state density for this state as the 1-particle RhoCI density.
 SavETr:  write IOETrn=   770 NScale= 10 NData=  16 NLR=1 NState=    1 LETran=      28.

 **********************************************************************

            Population analysis using the SCF Density.

 **********************************************************************

 Orbital symmetries:
       Occupied  (A) (A) (A) (A) (A) (A) (A) (A) (A) (A) (A) (A)
                 (A) (A) (A) (A) (A) (A) (A) (A) (A)
       Virtual   (A) (A) (A) (A) (A) (A) (A) (A) (A) (A) (A) (A)
                 (A) (A) (A) (A) (A) (A) (A) (A) (A) (A) (A) (A)
                 (A) (A) (A) (A) (A) (A) (A) (A) (A) (A) (A) (A)
                 (A) (A) (A) (A) (A) (A) (A) (A) (A) (A) (A) (A)
                 (A) (A) (A) (A) (A) (A) (A) (A) (A) (A) (A) (A)
                 (A) (A) (A) (A) (A) (A) (A) (A) (A) (A) (A) (A)
                 (A) (A) (A) (A) (A) (A) (A) (A) (A) (A) (A) (A)
                 (A) (A) (A) (A) (A) (A) (A) (A) (A) (A) (A) (A)
                 (A) (A) (A)
 The electronic state is 1-A.
 Alpha  occ. eigenvalues --  -10.22041 -10.21843 -10.21325 -10.19993 -10.19965
 Alpha  occ. eigenvalues --  -10.19342  -0.83083  -0.74264  -0.72290  -0.60176
 Alpha  occ. eigenvalues --   -0.58885  -0.50501  -0.45730  -0.43503  -0.42038
 Alpha  occ. eigenvalues --   -0.39298  -0.35658  -0.33733  -0.31411  -0.25038
 Alpha  occ. eigenvalues --   -0.23931
 Alpha virt. eigenvalues --   -0.01961  -0.01159   0.04974   0.10591   0.12274
 Alpha virt. eigenvalues --    0.12950   0.15698   0.17842   0.18792   0.26340
 Alpha virt. eigenvalues --    0.26937   0.29440   0.30685   0.46644   0.47093
 Alpha virt. eigenvalues --    0.50972   0.52529   0.54297   0.58321   0.59089
 Alpha virt. eigenvalues --    0.59553   0.60056   0.61332   0.62391   0.63519
 Alpha virt. eigenvalues --    0.65595   0.66153   0.72921   0.73390   0.76003
 Alpha virt. eigenvalues --    0.77950   0.80814   0.88076   0.91064   0.91471
 Alpha virt. eigenvalues --    0.92007   0.95125   0.98521   1.05362   1.06481
 Alpha virt. eigenvalues --    1.10673   1.16505   1.21531   1.26454   1.31955
 Alpha virt. eigenvalues --    1.37347   1.40855   1.44378   1.46190   1.53624
 Alpha virt. eigenvalues --    1.63701   1.69779   1.72495   1.74969   1.82773
 Alpha virt. eigenvalues --    1.86913   1.90958   1.92916   1.96227   2.00506
 Alpha virt. eigenvalues --    2.01700   2.04125   2.08410   2.16477   2.21912
 Alpha virt. eigenvalues --    2.22000   2.24011   2.24779   2.31764   2.34114
 Alpha virt. eigenvalues --    2.39543   2.42324   2.43937   2.45404   2.47746
 Alpha virt. eigenvalues --    2.48827   2.55216   2.58618   2.60273   2.63801
 Alpha virt. eigenvalues --    2.67949   2.69869   2.74451   2.87195   2.88487
 Alpha virt. eigenvalues --    2.99713   3.05254   3.09410   3.22541   3.42089
 Alpha virt. eigenvalues --    3.46642   3.59938   3.80417   4.07297   4.14260
 Alpha virt. eigenvalues --    4.17231   4.40361   4.41305   4.71489
          Condensed to atoms (all electrons):
               1          2          3          4          5          6
     1  C    4.851250   0.518855  -0.034980  -0.035697  -0.035545   0.538092
     2  C    0.518855   4.825276   0.511315  -0.030928  -0.025878  -0.035571
     3  C   -0.034980   0.511315   4.900426   0.503527  -0.025911  -0.041714
     4  C   -0.035697  -0.030928   0.503527   4.864082   0.528231  -0.041685
     5  C   -0.035545  -0.025878  -0.025911   0.528231   4.851482   0.517256
     6  C    0.538092  -0.035571  -0.041714  -0.041685   0.517256   4.848508
     7  H    0.331817  -0.046982   0.005216   0.000266   0.002744  -0.024075
     8  H   -0.029128   0.002685   0.000112   0.003906  -0.039573   0.348563
     9  H    0.003060   0.000124   0.003762  -0.038885   0.351897  -0.029982
    10  H    0.000421   0.003320  -0.036842   0.374170  -0.043732   0.005766
    11  H    0.005118  -0.043818   0.368998  -0.042360   0.003815   0.000759
    12  H   -0.037955   0.384637  -0.043777   0.003795   0.000152   0.004806
               7          8          9         10         11         12
     1  C    0.331817  -0.029128   0.003060   0.000421   0.005118  -0.037955
     2  C   -0.046982   0.002685   0.000124   0.003320  -0.043818   0.384637
     3  C    0.005216   0.000112   0.003762  -0.036842   0.368998  -0.043777
     4  C    0.000266   0.003906  -0.038885   0.374170  -0.042360   0.003795
     5  C    0.002744  -0.039573   0.351897  -0.043732   0.003815   0.000152
     6  C   -0.024075   0.348563  -0.029982   0.005766   0.000759   0.004806
     7  H    0.688677  -0.003767  -0.000048   0.000006  -0.000239  -0.007583
     8  H   -0.003767   0.634835  -0.004193  -0.000197   0.000010  -0.000085
     9  H   -0.000048  -0.004193   0.630653  -0.006265  -0.000142   0.000008
    10  H    0.000006  -0.000197  -0.006265   0.616537  -0.003970  -0.000120
    11  H   -0.000239   0.000010  -0.000142  -0.003970   0.619982  -0.003520
    12  H   -0.007583  -0.000085   0.000008  -0.000120  -0.003520   0.604163
 Mulliken charges:
               1
     1  C   -0.075309
     2  C   -0.063034
     3  C   -0.110132
     4  C   -0.088424
     5  C   -0.084938
     6  C   -0.090723
     7  H    0.053966
     8  H    0.086832
     9  H    0.090010
    10  H    0.090907
    11  H    0.095366
    12  H    0.095480
 Sum of Mulliken charges =  -0.00000
 Mulliken charges with hydrogens summed into heavy atoms:
               1
     1  C   -0.021343
     2  C    0.032445
     3  C   -0.014766
     4  C    0.002483
     5  C    0.005072
     6  C   -0.003892
 Electronic spatial extent (au):  <R**2>=            485.2595
 Charge=             -0.0000 electrons
 Dipole moment (field-independent basis, Debye):
    X=              0.1205    Y=             -0.2471    Z=              0.2084  Tot=              0.3450
 Quadrupole moment (field-independent basis, Debye-Ang):
   XX=            -30.3889   YY=            -33.2734   ZZ=            -39.1990
   XY=             -0.1963   XZ=              0.1447   YZ=             -0.5957
 Traceless Quadrupole moment (field-independent basis, Debye-Ang):
   XX=              3.8982   YY=              1.0137   ZZ=             -4.9119
   XY=             -0.1963   XZ=              0.1447   YZ=             -0.5957
 Octapole moment (field-independent basis, Debye-Ang**2):
  XXX=             -0.5157  YYY=             -3.0233  ZZZ=              0.3175  XYY=              1.6817
  XXY=             -0.5142  XXZ=             -0.2015  XZZ=             -0.4687  YZZ=             -1.0235
  YYZ=              1.9748  XYZ=              0.5043
 Hexadecapole moment (field-independent basis, Debye-Ang**3):
 XXXX=           -293.6854 YYYY=           -290.9080 ZZZZ=            -41.9874 XXXY=             -3.7529
 XXXZ=              1.7108 YYYX=              2.5310 YYYZ=             -3.3586 ZZZX=              0.1562
 ZZZY=             -0.8942 XXYY=            -95.6595 XXZZ=            -67.3882 YYZZ=            -62.8699
 XXYZ=             -1.0957 YYXZ=             -0.4020 ZZXY=              0.3990
 N-N= 1.968436297500D+02 E-N=-9.301447996506D+02  KE= 2.291265558999D+02
 1\1\GINC-DESKTOP-PRN5QE3\SP\RB3LYP TD-FC\6-31G(d,p)\C6H6\SHOHEI\10-Nov
 -2023\0\\# TD=(NStates=1) B3LYP/6-31G(d,p)\\EMISPCT\\0,1\C,0,0.3440054
 674,1.3215879507,0.005901189\C,0,1.4506878471,0.4145833448,-0.04105153
 94\C,0,1.0654803373,-0.973280981,0.0607675103\C,0,-0.3842377857,-1.386
 95895,0.0007349554\C,0,-1.4192641002,-0.3805111453,0.0007475967\C,0,-1
 .0303649038,0.9844351904,-0.0013468386\H,0,0.8898829285,2.530015188,0.
 0040663121\H,0,-1.9670672287,1.8023832182,-0.0670989815\H,0,-2.5482797
 367,-0.8189992518,0.0215930209\H,0,-0.7492276025,-2.3397955677,-0.1309
 854159\H,0,1.7198937962,-1.6819611466,-0.3041236328\H,0,2.3673697632,0
 .7053185294,0.1245820935\\Version=EM64L-G16RevB.01\State=1-A\HF=-232.1
 608743\RMSD=5.277e-09\PG=C01 [X(C6H6)]\\@


 THERE ONCE WAS A GIRL NAMED IRENE,
 WHO LIVED ON DISTILLED KEROSENE,
      BUT SHE STARTED ABSORBIN'
      A NEW HYDROCARBON,
 AND SINCE THEN HAS NEVER BENZENE.
 Job cpu time:       0 days  0 hours  2 minutes 59.6 seconds.
 Elapsed time:       0 days  0 hours  0 minutes 45.5 seconds.
 File lengths (MBytes):  RWF=    116 Int=      0 D2E=      0 Chk=      3 Scr=      1
 Normal termination of Gaussian 16 at Fri Nov 10 20:21:18 2023.
