 Entering Gaussian System, Link 0=g16
 Input=Geometry-337-.com
 Output=Geometry-337-.log
 Initial command:
 /home/shohei/gaussian/g16/l1.exe "/home/shohei/gaussian/scratch/Gau-20011.inp" -scrdir="/home/shohei/gaussian/scratch/"
 Entering Link 1 = /home/shohei/gaussian/g16/l1.exe PID=     20013.
  
 Copyright (c) 1988-2017, Gaussian, Inc.  All Rights Reserved.
  
 This is part of the Gaussian(R) 16 program.  It is based on
 the Gaussian(R) 09 system (copyright 2009, Gaussian, Inc.),
 the Gaussian(R) 03 system (copyright 2003, Gaussian, Inc.),
 the Gaussian(R) 98 system (copyright 1998, Gaussian, Inc.),
 the Gaussian(R) 94 system (copyright 1995, Gaussian, Inc.),
 the Gaussian 92(TM) system (copyright 1992, Gaussian, Inc.),
 the Gaussian 90(TM) system (copyright 1990, Gaussian, Inc.),
 the Gaussian 88(TM) system (copyright 1988, Gaussian, Inc.),
 the Gaussian 86(TM) system (copyright 1986, Carnegie Mellon
 University), and the Gaussian 82(TM) system (copyright 1983,
 Carnegie Mellon University). Gaussian is a federally registered
 trademark of Gaussian, Inc.
  
 This software contains proprietary and confidential information,
 including trade secrets, belonging to Gaussian, Inc.
  
 This software is provided under written license and may be
 used, copied, transmitted, or stored only in accord with that
 written license.
  
 The following legend is applicable only to US Government
 contracts under FAR:
  
                    RESTRICTED RIGHTS LEGEND
  
 Use, reproduction and disclosure by the US Government is
 subject to restrictions as set forth in subparagraphs (a)
 and (c) of the Commercial Computer Software - Restricted
 Rights clause in FAR 52.227-19.
  
 Gaussian, Inc.
 340 Quinnipiac St., Bldg. 40, Wallingford CT 06492
  
  
 ---------------------------------------------------------------
 Warning -- This program may not be used in any manner that
 competes with the business of Gaussian, Inc. or will provide
 assistance to any competitor of Gaussian, Inc.  The licensee
 of this program is prohibited from giving any competitor of
 Gaussian, Inc. access to this program.  By using this program,
 the user acknowledges that Gaussian, Inc. is engaged in the
 business of creating and licensing software in the field of
 computational chemistry and represents and warrants to the
 licensee that it is not a competitor of Gaussian, Inc. and that
 it will not use this program in any manner prohibited above.
 ---------------------------------------------------------------
  

 Cite this work as:
 Gaussian 16, Revision B.01,
 M. J. Frisch, G. W. Trucks, H. B. Schlegel, G. E. Scuseria, 
 M. A. Robb, J. R. Cheeseman, G. Scalmani, V. Barone, 
 G. A. Petersson, H. Nakatsuji, X. Li, M. Caricato, A. V. Marenich, 
 J. Bloino, B. G. Janesko, R. Gomperts, B. Mennucci, H. P. Hratchian, 
 J. V. Ortiz, A. F. Izmaylov, J. L. Sonnenberg, D. Williams-Young, 
 F. Ding, F. Lipparini, F. Egidi, J. Goings, B. Peng, A. Petrone, 
 T. Henderson, D. Ranasinghe, V. G. Zakrzewski, J. Gao, N. Rega, 
 G. Zheng, W. Liang, M. Hada, M. Ehara, K. Toyota, R. Fukuda, 
 J. Hasegawa, M. Ishida, T. Nakajima, Y. Honda, O. Kitao, H. Nakai, 
 T. Vreven, K. Throssell, J. A. Montgomery, Jr., J. E. Peralta, 
 F. Ogliaro, M. J. Bearpark, J. J. Heyd, E. N. Brothers, K. N. Kudin, 
 V. N. Staroverov, T. A. Keith, R. Kobayashi, J. Normand, 
 K. Raghavachari, A. P. Rendell, J. C. Burant, S. S. Iyengar, 
 J. Tomasi, M. Cossi, J. M. Millam, M. Klene, C. Adamo, R. Cammi, 
 J. W. Ochterski, R. L. Martin, K. Morokuma, O. Farkas, 
 J. B. Foresman, and D. J. Fox, Gaussian, Inc., Wallingford CT, 2016.
 
 ******************************************
 Gaussian 16:  EM64L-G16RevB.01 20-Dec-2017
                10-Nov-2023 
 ******************************************
 %nproc=4
 Will use up to    4 processors via shared memory.
 %Mem=2Gb
 ---------------------------------
 # TD=(NStates=1) B3LYP/6-31G(d,p)
 ---------------------------------
 1/38=1,172=1/1;
 2/12=2,17=6,18=5,40=1/2;
 3/5=1,6=6,7=101,11=9,25=1,30=1,74=-5/1,2,3,8;
 4//1;
 5/5=2,38=5/2;
 8/6=1,10=2,108=1/1;
 9/41=1,42=1,70=2/14;
 6/7=2,8=2,9=2,10=2/1;
 99/5=1,9=1/99;
 -------
 EMISPCT
 -------
 Symbolic Z-matrix:
 Charge =  0 Multiplicity = 1
 6                     0.37412   1.34447   0.01546 
 6                     1.4167    0.4108   -0.03142 
 6                     1.06474  -1.01382  -0.0082 
 6                    -0.36087  -1.37327   0.01342 
 6                    -1.41414  -0.36131   0.01882 
 6                    -1.09127   1.00623   0.01196 
 1                     0.5915    2.3726   -0.07452 
 1                    -1.85882   1.8986   -0.05021 
 1                    -2.30447  -0.79962  -0.25603 
 1                    -0.53337  -2.41035  -0.07449 
 1                     1.72132  -1.78682   0.12064 
 1                     2.52373   0.58687   0.06075 
 
                          Input orientation:                          
 ---------------------------------------------------------------------
 Center     Atomic      Atomic             Coordinates (Angstroms)
 Number     Number       Type             X           Y           Z
 ---------------------------------------------------------------------
      1          6           0        0.374124    1.344470    0.015465
      2          6           0        1.416696    0.410798   -0.031423
      3          6           0        1.064739   -1.013816   -0.008200
      4          6           0       -0.360872   -1.373266    0.013416
      5          6           0       -1.414143   -0.361307    0.018818
      6          6           0       -1.091269    1.006232    0.011961
      7          1           0        0.591503    2.372598   -0.074520
      8          1           0       -1.858819    1.898599   -0.050208
      9          1           0       -2.304472   -0.799619   -0.256029
     10          1           0       -0.533372   -2.410351   -0.074492
     11          1           0        1.721323   -1.786821    0.120645
     12          1           0        2.523730    0.586870    0.060748
 ---------------------------------------------------------------------
                    Distance matrix (angstroms):
                    1          2          3          4          5
     1  C    0.000000
     2  C    1.400321   0.000000
     3  C    2.457442   1.467629   0.000000
     4  C    2.815371   2.518857   1.470387   0.000000
     5  C    2.471353   2.934675   2.563464   1.460640   0.000000
     6  C    1.503926   2.578044   2.954550   2.489075   1.405154
     7  H    1.054703   2.128723   3.419963   3.866038   3.391986
     8  H    2.301609   3.597624   4.126877   3.599027   2.304274
     9  H    3.441760   3.919522   3.385097   2.044322   1.029731
    10  H    3.863978   3.429796   2.123362   1.055002   2.232274
    11  H    3.410424   2.223837   1.022370   2.125573   3.445810
    12  H    2.279652   1.124732   2.166934   3.487880   4.050634
                    6          7          8          9         10
     6  C    0.000000
     7  H    2.169368   0.000000
     8  H    1.178693   2.495866   0.000000
     9  H    2.191981   4.299138   2.742508   0.000000
    10  H    3.462913   4.913446   4.508265   2.400877   0.000000
    11  H    3.965303   4.314551   5.140907   4.162148   2.347449
    12  H    3.639569   2.634506   4.575989   5.033313   4.283399
                   11         12
    11  H    0.000000
    12  H    2.506363   0.000000
 Stoichiometry    C6H6
 Framework group  C1[X(C6H6)]
 Deg. of freedom    30
 Full point group                 C1      NOp   1
 Largest Abelian subgroup         C1      NOp   1
 Largest concise Abelian subgroup C1      NOp   1
                         Standard orientation:                         
 ---------------------------------------------------------------------
 Center     Atomic      Atomic             Coordinates (Angstroms)
 Number     Number       Type             X           Y           Z
 ---------------------------------------------------------------------
      1          6           0       -0.075553   -1.394433   -0.016994
      2          6           0        1.209665   -0.841310    0.039308
      3          6           0        1.329939    0.621167    0.014186
      4          6           0        0.093260    1.415872   -0.019102
      5          6           0       -1.227370    0.792028   -0.034066
      6          6           0       -1.356901   -0.607117   -0.025511
      7          1           0       -0.197668   -2.438079    0.074052
      8          1           0       -2.369163   -1.208455    0.029573
      9          1           0       -1.933965    1.491602    0.233639
     10          1           0        0.259315    2.454067    0.068121
     11          1           0        2.199548    1.144568   -0.108588
     12          1           0        2.203697   -1.360953   -0.043720
 ---------------------------------------------------------------------
 Rotational constants (GHZ):           5.5235823           5.1248174           2.6617766
 Standard basis: 6-31G(d,p) (6D, 7F)
 There are   120 symmetry adapted cartesian basis functions of A   symmetry.
 There are   120 symmetry adapted basis functions of A   symmetry.
   120 basis functions,   210 primitive gaussians,   120 cartesian basis functions
    21 alpha electrons       21 beta electrons
       nuclear repulsion energy       197.2310838895 Hartrees.
 NAtoms=   12 NActive=   12 NUniq=   12 SFac= 1.00D+00 NAtFMM=   60 NAOKFM=F Big=F
 Integral buffers will be    131072 words long.
 Regular integral format.
 Two-electron integral symmetry is turned on.
 One-electron integrals computed using PRISM.
 NBasis=   120 RedAO= T EigKep=  8.95D-04  NBF=   120
 NBsUse=   120 1.00D-06 EigRej= -1.00D+00 NBFU=   120
 ExpMin= 1.61D-01 ExpMax= 3.05D+03 ExpMxC= 4.57D+02 IAcc=3 IRadAn=         5 AccDes= 0.00D+00
 Harris functional with IExCor=  402 and IRadAn=       5 diagonalized for initial guess.
 HarFok:  IExCor=  402 AccDes= 0.00D+00 IRadAn=         5 IDoV= 1 UseB2=F ITyADJ=14
 ICtDFT=  3500011 ScaDFX=  1.000000  1.000000  1.000000  1.000000
 FoFCou: FMM=F IPFlag=           0 FMFlag=      100000 FMFlg1=           0
         NFxFlg=           0 DoJE=T BraDBF=F KetDBF=T FulRan=T
         wScrn=  0.000000 ICntrl=       500 IOpCl=  0 I1Cent=   200000004 NGrid=           0
         NMat0=    1 NMatS0=      1 NMatT0=    0 NMatD0=    1 NMtDS0=    0 NMtDT0=    0
 Petite list used in FoFCou.
 Keep R1 ints in memory in canonical form, NReq=30147728.
 Requested convergence on RMS density matrix=1.00D-08 within 128 cycles.
 Requested convergence on MAX density matrix=1.00D-06.
 Requested convergence on             energy=1.00D-06.
 No special actions if energy rises.
 Integral accuracy reduced to 1.0D-05 until final iterations.
 Initial convergence to 1.0D-05 achieved.  Increase integral accuracy.
 SCF Done:  E(RB3LYP) =  -232.211556240     A.U. after   13 cycles
            NFock= 13  Conv=0.82D-08     -V/T= 2.0125
 DoSCS=F DFT=T ScalE2(SS,OS)=  1.000000  1.000000
 ExpMin= 1.61D-01 ExpMax= 3.05D+03 ExpMxC= 4.57D+02 IAcc=3 IRadAn=         5 AccDes= 0.00D+00
 HarFok:  IExCor=  205 AccDes= 0.00D+00 IRadAn=         5 IDoV=-2 UseB2=F ITyADJ=14
 ICtDFT= 12500011 ScaDFX=  1.000000  1.000000  1.000000  1.000000
 Range of M.O.s used for correlation:     7   120
 NBasis=   120 NAE=    21 NBE=    21 NFC=     6 NFV=     0
 NROrb=    114 NOA=    15 NOB=    15 NVA=    99 NVB=    99
 Keep R1, R2, and R3 ints in memory in canonical form, NReq=84032236.
 Orbital symmetries:
       Occupied  (A) (A) (A) (A) (A) (A) (A) (A) (A) (A) (A) (A)
                 (A) (A) (A) (A) (A) (A) (A) (A) (A)
       Virtual   (A) (A) (A) (A) (A) (A) (A) (A) (A) (A) (A) (A)
                 (A) (A) (A) (A) (A) (A) (A) (A) (A) (A) (A) (A)
                 (A) (A) (A) (A) (A) (A) (A) (A) (A) (A) (A) (A)
                 (A) (A) (A) (A) (A) (A) (A) (A) (A) (A) (A) (A)
                 (A) (A) (A) (A) (A) (A) (A) (A) (A) (A) (A) (A)
                 (A) (A) (A) (A) (A) (A) (A) (A) (A) (A) (A) (A)
                 (A) (A) (A) (A) (A) (A) (A) (A) (A) (A) (A) (A)
                 (A) (A) (A) (A) (A) (A) (A) (A) (A) (A) (A) (A)
                 (A) (A) (A)
     4 initial guesses have been made.
 Convergence on wavefunction:    0.001000000000000
 Iteration     1 Dimension     4 NMult     0 NNew      4
 CISAX will form     4 AO SS matrices at one time.
 New state      1 was old state      2
 Iteration     2 Dimension     6 NMult     4 NNew      2
 Iteration     3 Dimension     8 NMult     6 NNew      2
 Iteration     4 Dimension    10 NMult     8 NNew      2
 Iteration     5 Dimension    12 NMult    10 NNew      2
 ***********************************************************************
 Excited states from <AA,BB:AA,BB> singles matrix:
 ***********************************************************************
 
 Ground to excited state transition densities written to RWF  633
 Ground to excited state transition electric dipole moments (Au):
       state          X           Y           Z        Dip. S.      Osc.
         1         0.1310     -0.0180      0.0060      0.0175      0.0021
 Ground to excited state transition velocity dipole moments (Au):
       state          X           Y           Z        Dip. S.      Osc.
         1        -0.0254      0.0032     -0.0010      0.0007      0.0024
 Ground to excited state transition magnetic dipole moments (Au):
       state          X           Y           Z
         1        -0.0006     -0.0061      0.0272
 Ground to excited state transition velocity quadrupole moments (Au):
       state          XX          YY          ZZ          XY          XZ          YZ
         1        -0.0046     -0.0098      0.0061     -0.0073      0.0004      0.0048
 <0|del|b> * <b|rxdel|0> + <0|del|b> * <b|delr+rdel|0>
 Rotatory Strengths (R) in cgs (10**-40 erg-esu-cm/Gauss)
       state          XX          YY          ZZ    R(velocity)    E-M Angle
         1        -0.0788     -0.2693      0.2293     -0.0396       90.00
 1/2[<0|r|b>*<b|rxdel|0> + (<0|rxdel|b>*<b|r|0>)*]
 Rotatory Strengths (R) in cgs (10**-40 erg-esu-cm/Gauss)
       state          XX          YY          ZZ     R(length)
         1         0.0586     -0.0775     -0.1154     -0.0448
  1/2[<0|del|b>*<b|r|0> + (<0|r|b>*<b|del|0>)*] (Au)
       state          X           Y           Z        Dip. S.   Osc.(frdel)
         1        -0.0033     -0.0001     -0.0000      0.0034      0.0023

 Excitation energies and oscillator strengths:
 
 Excited State   1:      Singlet-A      4.9881 eV  248.56 nm  f=0.0021  <S**2>=0.000
      20 -> 22         0.44425
      20 -> 23         0.17410
      21 -> 22        -0.25442
      21 -> 23         0.45529
 This state for optimization and/or second-order correction.
 Total Energy, E(TD-HF/TD-DFT) =  -232.028245212    
 Copying the excited state density for this state as the 1-particle RhoCI density.
 SavETr:  write IOETrn=   770 NScale= 10 NData=  16 NLR=1 NState=    1 LETran=      28.

 **********************************************************************

            Population analysis using the SCF Density.

 **********************************************************************

 Orbital symmetries:
       Occupied  (A) (A) (A) (A) (A) (A) (A) (A) (A) (A) (A) (A)
                 (A) (A) (A) (A) (A) (A) (A) (A) (A)
       Virtual   (A) (A) (A) (A) (A) (A) (A) (A) (A) (A) (A) (A)
                 (A) (A) (A) (A) (A) (A) (A) (A) (A) (A) (A) (A)
                 (A) (A) (A) (A) (A) (A) (A) (A) (A) (A) (A) (A)
                 (A) (A) (A) (A) (A) (A) (A) (A) (A) (A) (A) (A)
                 (A) (A) (A) (A) (A) (A) (A) (A) (A) (A) (A) (A)
                 (A) (A) (A) (A) (A) (A) (A) (A) (A) (A) (A) (A)
                 (A) (A) (A) (A) (A) (A) (A) (A) (A) (A) (A) (A)
                 (A) (A) (A) (A) (A) (A) (A) (A) (A) (A) (A) (A)
                 (A) (A) (A)
 The electronic state is 1-A.
 Alpha  occ. eigenvalues --  -10.21425 -10.20346 -10.19851 -10.19506 -10.19418
 Alpha  occ. eigenvalues --  -10.19371  -0.82327  -0.73641  -0.72431  -0.59775
 Alpha  occ. eigenvalues --   -0.59368  -0.50826  -0.47190  -0.43066  -0.42096
 Alpha  occ. eigenvalues --   -0.39970  -0.35411  -0.33780  -0.32781  -0.24665
 Alpha  occ. eigenvalues --   -0.23363
 Alpha virt. eigenvalues --   -0.01625  -0.00594   0.09009   0.12905   0.13460
 Alpha virt. eigenvalues --    0.14635   0.17101   0.17268   0.19775   0.25890
 Alpha virt. eigenvalues --    0.28036   0.28380   0.31101   0.47095   0.48221
 Alpha virt. eigenvalues --    0.50971   0.53012   0.53924   0.56524   0.59302
 Alpha virt. eigenvalues --    0.60085   0.60309   0.60863   0.62668   0.63208
 Alpha virt. eigenvalues --    0.65797   0.66405   0.73158   0.78390   0.80938
 Alpha virt. eigenvalues --    0.84349   0.86751   0.87921   0.90817   0.92001
 Alpha virt. eigenvalues --    0.92439   0.94284   1.02266   1.04763   1.08403
 Alpha virt. eigenvalues --    1.09233   1.14981   1.26383   1.26698   1.28002
 Alpha virt. eigenvalues --    1.37358   1.40371   1.41722   1.48110   1.53922
 Alpha virt. eigenvalues --    1.68505   1.70649   1.75588   1.83015   1.85934
 Alpha virt. eigenvalues --    1.88767   1.90639   1.94164   1.95508   1.97780
 Alpha virt. eigenvalues --    2.00601   2.01821   2.04154   2.20204   2.22960
 Alpha virt. eigenvalues --    2.29215   2.30005   2.36037   2.38264   2.39949
 Alpha virt. eigenvalues --    2.41727   2.45006   2.45622   2.48747   2.50405
 Alpha virt. eigenvalues --    2.51200   2.54027   2.57537   2.62102   2.64374
 Alpha virt. eigenvalues --    2.68545   2.72814   2.76074   2.95771   2.98573
 Alpha virt. eigenvalues --    3.09499   3.18125   3.20770   3.33237   3.40827
 Alpha virt. eigenvalues --    3.52370   3.57891   3.83469   4.07530   4.15266
 Alpha virt. eigenvalues --    4.17948   4.41382   4.44424   4.75207
          Condensed to atoms (all electrons):
               1          2          3          4          5          6
     1  C    4.841750   0.550932  -0.034713  -0.033219  -0.034570   0.494713
     2  C    0.550932   4.838810   0.501776  -0.035835  -0.031500  -0.029289
     3  C   -0.034713   0.501776   4.849539   0.539049  -0.029533  -0.029557
     4  C   -0.033219  -0.035835   0.539049   4.868658   0.512215  -0.038217
     5  C   -0.034570  -0.031500  -0.029533   0.512215   4.815132   0.537848
     6  C    0.494713  -0.029289  -0.029557  -0.038217   0.537848   4.878575
     7  H    0.371628  -0.045085   0.004754   0.000555   0.004759  -0.042979
     8  H   -0.034305   0.002834   0.000220   0.002929  -0.033468   0.359616
     9  H    0.003969   0.000604   0.004810  -0.048899   0.374286  -0.040706
    10  H    0.000291   0.005107  -0.044455   0.370912  -0.039797   0.004255
    11  H    0.004385  -0.040740   0.371024  -0.042636   0.004977   0.000446
    12  H   -0.034518   0.365697  -0.044921   0.004052   0.000271   0.002882
               7          8          9         10         11         12
     1  C    0.371628  -0.034305   0.003969   0.000291   0.004385  -0.034518
     2  C   -0.045085   0.002834   0.000604   0.005107  -0.040740   0.365697
     3  C    0.004754   0.000220   0.004810  -0.044455   0.371024  -0.044921
     4  C    0.000555   0.002929  -0.048899   0.370912  -0.042636   0.004052
     5  C    0.004759  -0.033468   0.374286  -0.039797   0.004977   0.000271
     6  C   -0.042979   0.359616  -0.040706   0.004255   0.000446   0.002882
     7  H    0.628961  -0.004365  -0.000185   0.000006  -0.000174  -0.004680
     8  H   -0.004365   0.613547  -0.003260  -0.000100   0.000008  -0.000072
     9  H   -0.000185  -0.003260   0.622666  -0.006029  -0.000238   0.000014
    10  H    0.000006  -0.000100  -0.006029   0.629515  -0.006355  -0.000201
    11  H   -0.000174   0.000008  -0.000238  -0.006355   0.626108  -0.004285
    12  H   -0.004680  -0.000072   0.000014  -0.000201  -0.004285   0.620866
 Mulliken charges:
               1
     1  C   -0.096343
     2  C   -0.083312
     3  C   -0.087992
     4  C   -0.099563
     5  C   -0.080620
     6  C   -0.097588
     7  H    0.086805
     8  H    0.096417
     9  H    0.092967
    10  H    0.086851
    11  H    0.087482
    12  H    0.094896
 Sum of Mulliken charges =  -0.00000
 Mulliken charges with hydrogens summed into heavy atoms:
               1
     1  C   -0.009538
     2  C    0.011584
     3  C   -0.000510
     4  C   -0.012712
     5  C    0.012347
     6  C   -0.001171
 Electronic spatial extent (au):  <R**2>=            482.1313
 Charge=             -0.0000 electrons
 Dipole moment (field-independent basis, Debye):
    X=              0.0999    Y=              0.0855    Z=              0.1655  Tot=              0.2113
 Quadrupole moment (field-independent basis, Debye-Ang):
   XX=            -31.1172   YY=            -31.4058   ZZ=            -39.0246
   XY=              0.5101   XZ=             -0.7375   YZ=              0.2144
 Traceless Quadrupole moment (field-independent basis, Debye-Ang):
   XX=              2.7320   YY=              2.4434   ZZ=             -5.1754
   XY=              0.5101   XZ=             -0.7375   YZ=              0.2144
 Octapole moment (field-independent basis, Debye-Ang**2):
  XXX=              1.9556  YYY=              1.9297  ZZZ=              0.2647  XYY=             -0.4472
  XXY=             -0.9509  XXZ=              0.2611  XZZ=              0.0715  YZZ=              0.3649
  YYZ=              1.1419  XYZ=             -0.5253
 Hexadecapole moment (field-independent basis, Debye-Ang**3):
 XXXX=           -293.9446 YYYY=           -278.8382 ZZZZ=            -41.5128 XXXY=              2.9021
 XXXZ=             -4.2758 YYYX=              2.5572 YYYZ=              0.8159 ZZZX=             -0.8936
 ZZZY=              0.2646 XXYY=            -92.9012 XXZZ=            -65.5900 YYZZ=            -62.0102
 XXYZ=              0.8644 YYXZ=             -1.8214 ZZXY=             -0.2308
 N-N= 1.972310838895D+02 E-N=-9.312623145412D+02  KE= 2.293454077948D+02
 1\1\GINC-DESKTOP-PRN5QE3\SP\RB3LYP TD-FC\6-31G(d,p)\C6H6\SHOHEI\10-Nov
 -2023\0\\# TD=(NStates=1) B3LYP/6-31G(d,p)\\EMISPCT\\0,1\C,0,0.3741243
 237,1.3444702856,0.0154649436\C,0,1.4166958062,0.410797667,-0.03142261
 54\C,0,1.0647387893,-1.0138157173,-0.0081999176\C,0,-0.3608721804,-1.3
 732661732,0.0134162107\C,0,-1.4141425244,-0.3613069893,0.0188182157\C,
 0,-1.0912685591,1.0062321846,0.011960603\H,0,0.5915034541,2.3725983543
 ,-0.0745199498\H,0,-1.8588186738,1.8985991617,-0.0502075624\H,0,-2.304
 4723943,-0.7996192007,-0.2560294547\H,0,-0.5333724992,-2.4103514573,-0
 .0744916258\H,0,1.7213228812,-1.7868214461,0.1206445387\H,0,2.52373018
 21,0.5868699838,0.0607483747\\Version=EM64L-G16RevB.01\State=1-A\HF=-2
 32.2115562\RMSD=8.183e-09\PG=C01 [X(C6H6)]\\@


 ABALONE: AN EXPRESSION OF DISBELIEF.
 Job cpu time:       0 days  0 hours  3 minutes 11.6 seconds.
 Elapsed time:       0 days  0 hours  0 minutes 48.5 seconds.
 File lengths (MBytes):  RWF=    116 Int=      0 D2E=      0 Chk=      3 Scr=      1
 Normal termination of Gaussian 16 at Fri Nov 10 20:46:50 2023.
