 Entering Gaussian System, Link 0=g16
 Input=Geometry-485-.com
 Output=Geometry-485-.log
 Initial command:
 /home/shohei/gaussian/g16/l1.exe "/home/shohei/gaussian/scratch/Gau-32703.inp" -scrdir="/home/shohei/gaussian/scratch/"
 Entering Link 1 = /home/shohei/gaussian/g16/l1.exe PID=     32705.
  
 Copyright (c) 1988-2017, Gaussian, Inc.  All Rights Reserved.
  
 This is part of the Gaussian(R) 16 program.  It is based on
 the Gaussian(R) 09 system (copyright 2009, Gaussian, Inc.),
 the Gaussian(R) 03 system (copyright 2003, Gaussian, Inc.),
 the Gaussian(R) 98 system (copyright 1998, Gaussian, Inc.),
 the Gaussian(R) 94 system (copyright 1995, Gaussian, Inc.),
 the Gaussian 92(TM) system (copyright 1992, Gaussian, Inc.),
 the Gaussian 90(TM) system (copyright 1990, Gaussian, Inc.),
 the Gaussian 88(TM) system (copyright 1988, Gaussian, Inc.),
 the Gaussian 86(TM) system (copyright 1986, Carnegie Mellon
 University), and the Gaussian 82(TM) system (copyright 1983,
 Carnegie Mellon University). Gaussian is a federally registered
 trademark of Gaussian, Inc.
  
 This software contains proprietary and confidential information,
 including trade secrets, belonging to Gaussian, Inc.
  
 This software is provided under written license and may be
 used, copied, transmitted, or stored only in accord with that
 written license.
  
 The following legend is applicable only to US Government
 contracts under FAR:
  
                    RESTRICTED RIGHTS LEGEND
  
 Use, reproduction and disclosure by the US Government is
 subject to restrictions as set forth in subparagraphs (a)
 and (c) of the Commercial Computer Software - Restricted
 Rights clause in FAR 52.227-19.
  
 Gaussian, Inc.
 340 Quinnipiac St., Bldg. 40, Wallingford CT 06492
  
  
 ---------------------------------------------------------------
 Warning -- This program may not be used in any manner that
 competes with the business of Gaussian, Inc. or will provide
 assistance to any competitor of Gaussian, Inc.  The licensee
 of this program is prohibited from giving any competitor of
 Gaussian, Inc. access to this program.  By using this program,
 the user acknowledges that Gaussian, Inc. is engaged in the
 business of creating and licensing software in the field of
 computational chemistry and represents and warrants to the
 licensee that it is not a competitor of Gaussian, Inc. and that
 it will not use this program in any manner prohibited above.
 ---------------------------------------------------------------
  

 Cite this work as:
 Gaussian 16, Revision B.01,
 M. J. Frisch, G. W. Trucks, H. B. Schlegel, G. E. Scuseria, 
 M. A. Robb, J. R. Cheeseman, G. Scalmani, V. Barone, 
 G. A. Petersson, H. Nakatsuji, X. Li, M. Caricato, A. V. Marenich, 
 J. Bloino, B. G. Janesko, R. Gomperts, B. Mennucci, H. P. Hratchian, 
 J. V. Ortiz, A. F. Izmaylov, J. L. Sonnenberg, D. Williams-Young, 
 F. Ding, F. Lipparini, F. Egidi, J. Goings, B. Peng, A. Petrone, 
 T. Henderson, D. Ranasinghe, V. G. Zakrzewski, J. Gao, N. Rega, 
 G. Zheng, W. Liang, M. Hada, M. Ehara, K. Toyota, R. Fukuda, 
 J. Hasegawa, M. Ishida, T. Nakajima, Y. Honda, O. Kitao, H. Nakai, 
 T. Vreven, K. Throssell, J. A. Montgomery, Jr., J. E. Peralta, 
 F. Ogliaro, M. J. Bearpark, J. J. Heyd, E. N. Brothers, K. N. Kudin, 
 V. N. Staroverov, T. A. Keith, R. Kobayashi, J. Normand, 
 K. Raghavachari, A. P. Rendell, J. C. Burant, S. S. Iyengar, 
 J. Tomasi, M. Cossi, J. M. Millam, M. Klene, C. Adamo, R. Cammi, 
 J. W. Ochterski, R. L. Martin, K. Morokuma, O. Farkas, 
 J. B. Foresman, and D. J. Fox, Gaussian, Inc., Wallingford CT, 2016.
 
 ******************************************
 Gaussian 16:  EM64L-G16RevB.01 20-Dec-2017
                10-Nov-2023 
 ******************************************
 %nproc=4
 Will use up to    4 processors via shared memory.
 %Mem=2Gb
 ---------------------------------
 # TD=(NStates=1) B3LYP/6-31G(d,p)
 ---------------------------------
 1/38=1,172=1/1;
 2/12=2,17=6,18=5,40=1/2;
 3/5=1,6=6,7=101,11=9,25=1,30=1,74=-5/1,2,3,8;
 4//1;
 5/5=2,38=5/2;
 8/6=1,10=2,108=1/1;
 9/41=1,42=1,70=2/14;
 6/7=2,8=2,9=2,10=2/1;
 99/5=1,9=1/99;
 -------
 EMISPCT
 -------
 Symbolic Z-matrix:
 Charge =  0 Multiplicity = 1
 6                     0.39118   1.42862   0.18057 
 6                     1.32153   0.39427  -0.14369 
 6                     1.05535  -0.98133   0.06486 
 6                    -0.37079  -1.4366    0.02635 
 6                    -1.39617  -0.39414   0.02521 
 6                    -0.95912   0.99917  -0.11657 
 1                     0.48892   2.41573   0.43616 
 1                    -1.91022   1.76327  -0.28201 
 1                    -2.36594  -0.81954  -0.17602 
 1                    -0.73661  -2.36868   0.06147 
 1                     1.69215  -1.71405  -0.08624 
 1                     2.38152   0.57661  -0.45546 
 
                          Input orientation:                          
 ---------------------------------------------------------------------
 Center     Atomic      Atomic             Coordinates (Angstroms)
 Number     Number       Type             X           Y           Z
 ---------------------------------------------------------------------
      1          6           0        0.391177    1.428623    0.180572
      2          6           0        1.321526    0.394265   -0.143690
      3          6           0        1.055352   -0.981327    0.064857
      4          6           0       -0.370786   -1.436595    0.026353
      5          6           0       -1.396166   -0.394139    0.025213
      6          6           0       -0.959115    0.999173   -0.116568
      7          1           0        0.488916    2.415732    0.436165
      8          1           0       -1.910219    1.763265   -0.282007
      9          1           0       -2.365940   -0.819536   -0.176020
     10          1           0       -0.736614   -2.368678    0.061474
     11          1           0        1.692152   -1.714049   -0.086238
     12          1           0        2.381517    0.576611   -0.455455
 ---------------------------------------------------------------------
                    Distance matrix (angstroms):
                    1          2          3          4          5
     1  C    0.000000
     2  C    1.428493   0.000000
     3  C    2.502474   1.416543   0.000000
     4  C    2.968812   2.498977   1.497539   0.000000
     5  C    2.557575   2.834777   2.521171   1.462231   0.000000
     6  C    1.447760   2.359655   2.830790   2.509885   1.467117
     7  H    1.024337   2.261813   3.463918   3.968307   3.408488
     8  H    2.371157   3.512473   4.055577   3.564273   2.238979
     9  H    3.575342   3.882237   3.433575   2.098179   1.077923
    10  H    3.963028   3.451361   2.266252   1.001919   2.082098
    11  H    3.411760   2.141414   0.982459   2.084555   3.360401
    12  H    2.256526   1.119834   2.111068   3.443880   3.929922
                    6          7          8          9         10
     6  C    0.000000
     7  H    2.099750   0.000000
     8  H    1.231180   2.587920   0.000000
     9  H    2.300085   4.357974   2.624839   0.000000
    10  H    3.379886   4.953070   4.309093   2.260741   0.000000
    11  H    3.793640   4.333102   5.010700   4.156480   2.519774
    12  H    3.384262   2.785550   4.456145   4.956376   4.320265
                   11         12
    11  H    0.000000
    12  H    2.420468   0.000000
 Stoichiometry    C6H6
 Framework group  C1[X(C6H6)]
 Deg. of freedom    30
 Full point group                 C1      NOp   1
 Largest Abelian subgroup         C1      NOp   1
 Largest concise Abelian subgroup C1      NOp   1
                         Standard orientation:                         
 ---------------------------------------------------------------------
 Center     Atomic      Atomic             Coordinates (Angstroms)
 Number     Number       Type             X           Y           Z
 ---------------------------------------------------------------------
      1          6           0       -1.476544    0.161273   -0.180218
      2          6           0       -0.857788   -1.086175    0.138539
      3          6           0        0.517821   -1.346771   -0.076830
      4          6           0        1.468091   -0.189937   -0.040147
      5          6           0        0.878410    1.148103   -0.033432
      6          6           0       -0.577119    1.256612    0.115204
      7          1           0       -2.431041    0.435810   -0.430879
      8          1           0       -0.934850    2.422405    0.284792
      9          1           0        1.633004    1.891570    0.165978
     10          1           0        2.469214   -0.194402   -0.079830
     11          1           0        0.964001   -2.209603    0.070373
     12          1           0       -1.417550   -2.004405    0.450868
 ---------------------------------------------------------------------
 Rotational constants (GHZ):           5.5205919           5.1912770           2.7154490
 Standard basis: 6-31G(d,p) (6D, 7F)
 There are   120 symmetry adapted cartesian basis functions of A   symmetry.
 There are   120 symmetry adapted basis functions of A   symmetry.
   120 basis functions,   210 primitive gaussians,   120 cartesian basis functions
    21 alpha electrons       21 beta electrons
       nuclear repulsion energy       197.9282316771 Hartrees.
 NAtoms=   12 NActive=   12 NUniq=   12 SFac= 1.00D+00 NAtFMM=   60 NAOKFM=F Big=F
 Integral buffers will be    131072 words long.
 Regular integral format.
 Two-electron integral symmetry is turned on.
 One-electron integrals computed using PRISM.
 NBasis=   120 RedAO= T EigKep=  2.20D-03  NBF=   120
 NBsUse=   120 1.00D-06 EigRej= -1.00D+00 NBFU=   120
 ExpMin= 1.61D-01 ExpMax= 3.05D+03 ExpMxC= 4.57D+02 IAcc=3 IRadAn=         5 AccDes= 0.00D+00
 Harris functional with IExCor=  402 and IRadAn=       5 diagonalized for initial guess.
 HarFok:  IExCor=  402 AccDes= 0.00D+00 IRadAn=         5 IDoV= 1 UseB2=F ITyADJ=14
 ICtDFT=  3500011 ScaDFX=  1.000000  1.000000  1.000000  1.000000
 FoFCou: FMM=F IPFlag=           0 FMFlag=      100000 FMFlg1=           0
         NFxFlg=           0 DoJE=T BraDBF=F KetDBF=T FulRan=T
         wScrn=  0.000000 ICntrl=       500 IOpCl=  0 I1Cent=   200000004 NGrid=           0
         NMat0=    1 NMatS0=      1 NMatT0=    0 NMatD0=    1 NMtDS0=    0 NMtDT0=    0
 Petite list used in FoFCou.
 Keep R1 ints in memory in canonical form, NReq=30147728.
 Requested convergence on RMS density matrix=1.00D-08 within 128 cycles.
 Requested convergence on MAX density matrix=1.00D-06.
 Requested convergence on             energy=1.00D-06.
 No special actions if energy rises.
 Integral accuracy reduced to 1.0D-05 until final iterations.
 Initial convergence to 1.0D-05 achieved.  Increase integral accuracy.
 SCF Done:  E(RB3LYP) =  -232.167311262     A.U. after   14 cycles
            NFock= 14  Conv=0.19D-08     -V/T= 2.0118
 DoSCS=F DFT=T ScalE2(SS,OS)=  1.000000  1.000000
 ExpMin= 1.61D-01 ExpMax= 3.05D+03 ExpMxC= 4.57D+02 IAcc=3 IRadAn=         5 AccDes= 0.00D+00
 HarFok:  IExCor=  205 AccDes= 0.00D+00 IRadAn=         5 IDoV=-2 UseB2=F ITyADJ=14
 ICtDFT= 12500011 ScaDFX=  1.000000  1.000000  1.000000  1.000000
 Range of M.O.s used for correlation:     7   120
 NBasis=   120 NAE=    21 NBE=    21 NFC=     6 NFV=     0
 NROrb=    114 NOA=    15 NOB=    15 NVA=    99 NVB=    99
 Keep R1, R2, and R3 ints in memory in canonical form, NReq=84032236.
 Orbital symmetries:
       Occupied  (A) (A) (A) (A) (A) (A) (A) (A) (A) (A) (A) (A)
                 (A) (A) (A) (A) (A) (A) (A) (A) (A)
       Virtual   (A) (A) (A) (A) (A) (A) (A) (A) (A) (A) (A) (A)
                 (A) (A) (A) (A) (A) (A) (A) (A) (A) (A) (A) (A)
                 (A) (A) (A) (A) (A) (A) (A) (A) (A) (A) (A) (A)
                 (A) (A) (A) (A) (A) (A) (A) (A) (A) (A) (A) (A)
                 (A) (A) (A) (A) (A) (A) (A) (A) (A) (A) (A) (A)
                 (A) (A) (A) (A) (A) (A) (A) (A) (A) (A) (A) (A)
                 (A) (A) (A) (A) (A) (A) (A) (A) (A) (A) (A) (A)
                 (A) (A) (A) (A) (A) (A) (A) (A) (A) (A) (A) (A)
                 (A) (A) (A)
     4 initial guesses have been made.
 Convergence on wavefunction:    0.001000000000000
 Iteration     1 Dimension     4 NMult     0 NNew      4
 CISAX will form     4 AO SS matrices at one time.
 New state      1 was old state      2
 Iteration     2 Dimension     6 NMult     4 NNew      2
 Iteration     3 Dimension     8 NMult     6 NNew      2
 Iteration     4 Dimension    10 NMult     8 NNew      2
 Iteration     5 Dimension    12 NMult    10 NNew      2
 ***********************************************************************
 Excited states from <AA,BB:AA,BB> singles matrix:
 ***********************************************************************
 
 Ground to excited state transition densities written to RWF  633
 Ground to excited state transition electric dipole moments (Au):
       state          X           Y           Z        Dip. S.      Osc.
         1         0.0339      0.1930      0.0024      0.0384      0.0043
 Ground to excited state transition velocity dipole moments (Au):
       state          X           Y           Z        Dip. S.      Osc.
         1        -0.0053     -0.0329     -0.0011      0.0011      0.0044
 Ground to excited state transition magnetic dipole moments (Au):
       state          X           Y           Z
         1        -0.0707     -0.0345     -0.2167
 Ground to excited state transition velocity quadrupole moments (Au):
       state          XX          YY          ZZ          XY          XZ          YZ
         1         0.0025      0.0052     -0.0035     -0.0108      0.0061     -0.0374
 <0|del|b> * <b|rxdel|0> + <0|del|b> * <b|delr+rdel|0>
 Rotatory Strengths (R) in cgs (10**-40 erg-esu-cm/Gauss)
       state          XX          YY          ZZ    R(velocity)    E-M Angle
         1         3.3675      1.7059      2.3553      2.4762       76.82
 1/2[<0|r|b>*<b|rxdel|0> + (<0|rxdel|b>*<b|r|0>)*]
 Rotatory Strengths (R) in cgs (10**-40 erg-esu-cm/Gauss)
       state          XX          YY          ZZ     R(length)
         1         1.6923      4.7130      0.3691      2.2581
  1/2[<0|del|b>*<b|r|0> + (<0|r|b>*<b|del|0>)*] (Au)
       state          X           Y           Z        Dip. S.   Osc.(frdel)
         1        -0.0002     -0.0064     -0.0000      0.0065      0.0044

 Excitation energies and oscillator strengths:
 
 Excited State   1:      Singlet-A      4.5434 eV  272.89 nm  f=0.0043  <S**2>=0.000
      20 -> 22         0.44011
      20 -> 23        -0.25293
      21 -> 22        -0.38742
      21 -> 23        -0.30238
 This state for optimization and/or second-order correction.
 Total Energy, E(TD-HF/TD-DFT) =  -232.000344765    
 Copying the excited state density for this state as the 1-particle RhoCI density.
 SavETr:  write IOETrn=   770 NScale= 10 NData=  16 NLR=1 NState=    1 LETran=      28.

 **********************************************************************

            Population analysis using the SCF Density.

 **********************************************************************

 Orbital symmetries:
       Occupied  (A) (A) (A) (A) (A) (A) (A) (A) (A) (A) (A) (A)
                 (A) (A) (A) (A) (A) (A) (A) (A) (A)
       Virtual   (A) (A) (A) (A) (A) (A) (A) (A) (A) (A) (A) (A)
                 (A) (A) (A) (A) (A) (A) (A) (A) (A) (A) (A) (A)
                 (A) (A) (A) (A) (A) (A) (A) (A) (A) (A) (A) (A)
                 (A) (A) (A) (A) (A) (A) (A) (A) (A) (A) (A) (A)
                 (A) (A) (A) (A) (A) (A) (A) (A) (A) (A) (A) (A)
                 (A) (A) (A) (A) (A) (A) (A) (A) (A) (A) (A) (A)
                 (A) (A) (A) (A) (A) (A) (A) (A) (A) (A) (A) (A)
                 (A) (A) (A) (A) (A) (A) (A) (A) (A) (A) (A) (A)
                 (A) (A) (A)
 The electronic state is 1-A.
 Alpha  occ. eigenvalues --  -10.21576 -10.20599 -10.20257 -10.19471 -10.19335
 Alpha  occ. eigenvalues --  -10.18870  -0.82733  -0.73623  -0.72588  -0.60231
 Alpha  occ. eigenvalues --   -0.58980  -0.51334  -0.47655  -0.43217  -0.42016
 Alpha  occ. eigenvalues --   -0.39976  -0.36609  -0.32954  -0.32312  -0.23313
 Alpha  occ. eigenvalues --   -0.23201
 Alpha virt. eigenvalues --   -0.02666  -0.00794   0.08593   0.10921   0.13886
 Alpha virt. eigenvalues --    0.14544   0.16447   0.18029   0.20092   0.26720
 Alpha virt. eigenvalues --    0.27920   0.28661   0.31588   0.41637   0.43990
 Alpha virt. eigenvalues --    0.48952   0.53251   0.55590   0.57284   0.57415
 Alpha virt. eigenvalues --    0.58889   0.60657   0.60959   0.62317   0.63534
 Alpha virt. eigenvalues --    0.66077   0.66439   0.72243   0.74919   0.78155
 Alpha virt. eigenvalues --    0.83640   0.84283   0.86508   0.88421   0.93089
 Alpha virt. eigenvalues --    0.94217   0.95478   1.00906   1.02618   1.05192
 Alpha virt. eigenvalues --    1.07898   1.08666   1.18152   1.25607   1.35209
 Alpha virt. eigenvalues --    1.35987   1.41367   1.44348   1.47292   1.56044
 Alpha virt. eigenvalues --    1.66874   1.70799   1.77080   1.78848   1.83457
 Alpha virt. eigenvalues --    1.89142   1.90613   1.91908   1.93949   1.96120
 Alpha virt. eigenvalues --    2.02921   2.04832   2.05329   2.15213   2.18914
 Alpha virt. eigenvalues --    2.28639   2.30930   2.35128   2.37319   2.39046
 Alpha virt. eigenvalues --    2.39726   2.43670   2.45650   2.46765   2.48018
 Alpha virt. eigenvalues --    2.49642   2.54518   2.58687   2.62159   2.64072
 Alpha virt. eigenvalues --    2.71282   2.75087   2.76410   2.90928   2.97883
 Alpha virt. eigenvalues --    3.02563   3.11760   3.26693   3.30181   3.42115
 Alpha virt. eigenvalues --    3.61765   3.63233   3.85510   4.08874   4.16431
 Alpha virt. eigenvalues --    4.18484   4.43765   4.46497   4.70482
          Condensed to atoms (all electrons):
               1          2          3          4          5          6
     1  C    4.854789   0.500365  -0.030767  -0.029434  -0.037016   0.507843
     2  C    0.500365   4.862146   0.543597  -0.030523  -0.035286  -0.031899
     3  C   -0.030767   0.543597   4.826557   0.506101  -0.037124  -0.038510
     4  C   -0.029434  -0.030523   0.506101   4.860751   0.533240  -0.035530
     5  C   -0.037016  -0.035286  -0.037124   0.533240   4.859618   0.512736
     6  C    0.507843  -0.031899  -0.038510  -0.035530   0.512736   4.913523
     7  H    0.383268  -0.036482   0.002942   0.000403   0.003759  -0.045144
     8  H   -0.034636   0.003357   0.000675   0.003817  -0.038175   0.341233
     9  H    0.003289   0.000215   0.004644  -0.046045   0.366539  -0.035851
    10  H    0.000372   0.004511  -0.039304   0.368736  -0.046271   0.005725
    11  H    0.004514  -0.045417   0.381211  -0.048861   0.004690   0.000374
    12  H   -0.042681   0.363333  -0.045264   0.004673   0.000759   0.004212
               7          8          9         10         11         12
     1  C    0.383268  -0.034636   0.003289   0.000372   0.004514  -0.042681
     2  C   -0.036482   0.003357   0.000215   0.004511  -0.045417   0.363333
     3  C    0.002942   0.000675   0.004644  -0.039304   0.381211  -0.045264
     4  C    0.000403   0.003817  -0.046045   0.368736  -0.048861   0.004673
     5  C    0.003759  -0.038175   0.366539  -0.046271   0.004690   0.000759
     6  C   -0.045144   0.341233  -0.035851   0.005725   0.000374   0.004212
     7  H    0.593626  -0.004003  -0.000138   0.000017  -0.000129  -0.003425
     8  H   -0.004003   0.660585  -0.004394  -0.000214   0.000013  -0.000139
     9  H   -0.000138  -0.004394   0.631190  -0.007963  -0.000293   0.000017
    10  H    0.000017  -0.000214  -0.007963   0.633952  -0.004410  -0.000176
    11  H   -0.000129   0.000013  -0.000293  -0.004410   0.629581  -0.007490
    12  H   -0.003425  -0.000139   0.000017  -0.000176  -0.007490   0.637313
 Mulliken charges:
               1
     1  C   -0.079906
     2  C   -0.097916
     3  C   -0.074756
     4  C   -0.087329
     5  C   -0.087469
     6  C   -0.098710
     7  H    0.105305
     8  H    0.071882
     9  H    0.088790
    10  H    0.085024
    11  H    0.086216
    12  H    0.088868
 Sum of Mulliken charges =  -0.00000
 Mulliken charges with hydrogens summed into heavy atoms:
               1
     1  C    0.025400
     2  C   -0.009048
     3  C    0.011460
     4  C   -0.002305
     5  C    0.001321
     6  C   -0.026827
 Electronic spatial extent (au):  <R**2>=            477.1270
 Charge=             -0.0000 electrons
 Dipole moment (field-independent basis, Debye):
    X=              0.0125    Y=             -0.0689    Z=              0.2468  Tot=              0.2566
 Quadrupole moment (field-independent basis, Debye-Ang):
   XX=            -30.8396   YY=            -32.4086   ZZ=            -38.6610
   XY=             -0.1158   XZ=              0.4930   YZ=             -0.2850
 Traceless Quadrupole moment (field-independent basis, Debye-Ang):
   XX=              3.1301   YY=              1.5611   ZZ=             -4.6912
   XY=             -0.1158   XZ=              0.4930   YZ=             -0.2850
 Octapole moment (field-independent basis, Debye-Ang**2):
  XXX=              2.1192  YYY=             -2.0009  ZZZ=              0.1888  XYY=              0.7649
  XXY=              1.3103  XXZ=             -1.2228  XZZ=             -0.5839  YZZ=             -0.6262
  YYZ=              2.9697  XYZ=              1.2015
 Hexadecapole moment (field-independent basis, Debye-Ang**3):
 XXXX=           -281.4211 YYYY=           -282.4623 ZZZZ=            -45.4395 XXXY=             -0.4975
 XXXZ=              5.0774 YYYX=             -1.1438 YYYZ=             -0.4180 ZZZX=              0.8740
 ZZZY=             -0.6718 XXYY=            -94.9819 XXZZ=            -62.6422 YYZZ=            -61.9375
 XXYZ=             -1.4817 YYXZ=             -1.0145 ZZXY=              0.0996
 N-N= 1.979282316771D+02 E-N=-9.326653064303D+02  KE= 2.294545301110D+02
 1\1\GINC-DESKTOP-PRN5QE3\SP\RB3LYP TD-FC\6-31G(d,p)\C6H6\SHOHEI\10-Nov
 -2023\0\\# TD=(NStates=1) B3LYP/6-31G(d,p)\\EMISPCT\\0,1\C,0,0.3911765
 336,1.4286226278,0.1805724578\C,0,1.3215259164,0.394265249,-0.14369035
 9\C,0,1.0553520039,-0.9813265589,0.0648570491\C,0,-0.3707862227,-1.436
 5952122,0.0263532952\C,0,-1.3961661474,-0.394138766,0.0252128533\C,0,-
 0.9591154943,0.9991725108,-0.1165683968\H,0,0.4889161834,2.4157323682,
 0.4361645821\H,0,-1.9102186303,1.7632651905,-0.2820072649\H,0,-2.36593
 99907,-0.8195361483,-0.176019559\H,0,-0.7366138224,-2.3686784803,0.061
 4736629\H,0,1.6921520117,-1.7140486059,-0.0862379982\H,0,2.38151692,0.
 5766112012,-0.455455051\\Version=EM64L-G16RevB.01\State=1-A\HF=-232.16
 73113\RMSD=1.895e-09\PG=C01 [X(C6H6)]\\@


 The mind is not a vessel to be filled but a fire to be kindled.
                                  -- Plutarch
 Job cpu time:       0 days  0 hours  3 minutes 19.5 seconds.
 Elapsed time:       0 days  0 hours  0 minutes 50.6 seconds.
 File lengths (MBytes):  RWF=    116 Int=      0 D2E=      0 Chk=      3 Scr=      1
 Normal termination of Gaussian 16 at Fri Nov 10 22:50:47 2023.
