 Entering Gaussian System, Link 0=g16
 Input=Geometry-266-.com
 Output=Geometry-266-.log
 Initial command:
 /home/shohei/gaussian/g16/l1.exe "/home/shohei/gaussian/scratch/Gau-14075.inp" -scrdir="/home/shohei/gaussian/scratch/"
 Entering Link 1 = /home/shohei/gaussian/g16/l1.exe PID=     14077.
  
 Copyright (c) 1988-2017, Gaussian, Inc.  All Rights Reserved.
  
 This is part of the Gaussian(R) 16 program.  It is based on
 the Gaussian(R) 09 system (copyright 2009, Gaussian, Inc.),
 the Gaussian(R) 03 system (copyright 2003, Gaussian, Inc.),
 the Gaussian(R) 98 system (copyright 1998, Gaussian, Inc.),
 the Gaussian(R) 94 system (copyright 1995, Gaussian, Inc.),
 the Gaussian 92(TM) system (copyright 1992, Gaussian, Inc.),
 the Gaussian 90(TM) system (copyright 1990, Gaussian, Inc.),
 the Gaussian 88(TM) system (copyright 1988, Gaussian, Inc.),
 the Gaussian 86(TM) system (copyright 1986, Carnegie Mellon
 University), and the Gaussian 82(TM) system (copyright 1983,
 Carnegie Mellon University). Gaussian is a federally registered
 trademark of Gaussian, Inc.
  
 This software contains proprietary and confidential information,
 including trade secrets, belonging to Gaussian, Inc.
  
 This software is provided under written license and may be
 used, copied, transmitted, or stored only in accord with that
 written license.
  
 The following legend is applicable only to US Government
 contracts under FAR:
  
                    RESTRICTED RIGHTS LEGEND
  
 Use, reproduction and disclosure by the US Government is
 subject to restrictions as set forth in subparagraphs (a)
 and (c) of the Commercial Computer Software - Restricted
 Rights clause in FAR 52.227-19.
  
 Gaussian, Inc.
 340 Quinnipiac St., Bldg. 40, Wallingford CT 06492
  
  
 ---------------------------------------------------------------
 Warning -- This program may not be used in any manner that
 competes with the business of Gaussian, Inc. or will provide
 assistance to any competitor of Gaussian, Inc.  The licensee
 of this program is prohibited from giving any competitor of
 Gaussian, Inc. access to this program.  By using this program,
 the user acknowledges that Gaussian, Inc. is engaged in the
 business of creating and licensing software in the field of
 computational chemistry and represents and warrants to the
 licensee that it is not a competitor of Gaussian, Inc. and that
 it will not use this program in any manner prohibited above.
 ---------------------------------------------------------------
  

 Cite this work as:
 Gaussian 16, Revision B.01,
 M. J. Frisch, G. W. Trucks, H. B. Schlegel, G. E. Scuseria, 
 M. A. Robb, J. R. Cheeseman, G. Scalmani, V. Barone, 
 G. A. Petersson, H. Nakatsuji, X. Li, M. Caricato, A. V. Marenich, 
 J. Bloino, B. G. Janesko, R. Gomperts, B. Mennucci, H. P. Hratchian, 
 J. V. Ortiz, A. F. Izmaylov, J. L. Sonnenberg, D. Williams-Young, 
 F. Ding, F. Lipparini, F. Egidi, J. Goings, B. Peng, A. Petrone, 
 T. Henderson, D. Ranasinghe, V. G. Zakrzewski, J. Gao, N. Rega, 
 G. Zheng, W. Liang, M. Hada, M. Ehara, K. Toyota, R. Fukuda, 
 J. Hasegawa, M. Ishida, T. Nakajima, Y. Honda, O. Kitao, H. Nakai, 
 T. Vreven, K. Throssell, J. A. Montgomery, Jr., J. E. Peralta, 
 F. Ogliaro, M. J. Bearpark, J. J. Heyd, E. N. Brothers, K. N. Kudin, 
 V. N. Staroverov, T. A. Keith, R. Kobayashi, J. Normand, 
 K. Raghavachari, A. P. Rendell, J. C. Burant, S. S. Iyengar, 
 J. Tomasi, M. Cossi, J. M. Millam, M. Klene, C. Adamo, R. Cammi, 
 J. W. Ochterski, R. L. Martin, K. Morokuma, O. Farkas, 
 J. B. Foresman, and D. J. Fox, Gaussian, Inc., Wallingford CT, 2016.
 
 ******************************************
 Gaussian 16:  EM64L-G16RevB.01 20-Dec-2017
                10-Nov-2023 
 ******************************************
 %nproc=4
 Will use up to    4 processors via shared memory.
 %Mem=2Gb
 ---------------------------------
 # TD=(NStates=1) B3LYP/6-31G(d,p)
 ---------------------------------
 1/38=1,172=1/1;
 2/12=2,17=6,18=5,40=1/2;
 3/5=1,6=6,7=101,11=9,25=1,30=1,74=-5/1,2,3,8;
 4//1;
 5/5=2,38=5/2;
 8/6=1,10=2,108=1/1;
 9/41=1,42=1,70=2/14;
 6/7=2,8=2,9=2,10=2/1;
 99/5=1,9=1/99;
 -------
 EMISPCT
 -------
 Symbolic Z-matrix:
 Charge =  0 Multiplicity = 1
 6                     0.37444   1.39985  -0.12758 
 6                     1.31613   0.3859    0.09769 
 6                     0.99824  -0.96891  -0.05585 
 6                    -0.32336  -1.38958   0.02512 
 6                    -1.36537  -0.39746  -0.03208 
 6                    -0.99454   0.97926   0.05247 
 1                     0.60585   2.3754    0.04927 
 1                    -1.79154   1.94095   0.35831 
 1                    -2.5046   -0.69533  -0.09096 
 1                    -0.54121  -2.42832   0.10947 
 1                     1.78085  -1.73321   0.00577 
 1                     2.37733   0.44651   0.11793 
 
                          Input orientation:                          
 ---------------------------------------------------------------------
 Center     Atomic      Atomic             Coordinates (Angstroms)
 Number     Number       Type             X           Y           Z
 ---------------------------------------------------------------------
      1          6           0        0.374442    1.399847   -0.127585
      2          6           0        1.316127    0.385899    0.097692
      3          6           0        0.998236   -0.968913   -0.055846
      4          6           0       -0.323361   -1.389583    0.025119
      5          6           0       -1.365375   -0.397460   -0.032079
      6          6           0       -0.994537    0.979262    0.052469
      7          1           0        0.605849    2.375405    0.049275
      8          1           0       -1.791540    1.940946    0.358308
      9          1           0       -2.504597   -0.695329   -0.090960
     10          1           0       -0.541208   -2.428320    0.109471
     11          1           0        1.780846   -1.733207    0.005773
     12          1           0        2.377328    0.446514    0.117934
 ---------------------------------------------------------------------
                    Distance matrix (angstroms):
                    1          2          3          4          5
     1  C    0.000000
     2  C    1.402002   0.000000
     3  C    2.450569   1.400051   0.000000
     4  C    2.879440   2.417752   1.389294   0.000000
     5  C    2.503278   2.796595   2.431826   1.439921   0.000000
     6  C    1.443405   2.386062   2.788954   2.462246   1.428297
     7  H    1.018106   2.113048   3.368898   3.878034   3.403105
     8  H    2.284811   3.484779   4.052364   3.654995   2.408767
     9  H    3.560895   3.975245   3.513676   2.291998   1.178991
    10  H    3.943283   3.371893   2.127696   1.064682   2.196288
    11  H    3.436828   2.171410   1.095637   2.132168   3.418239
    12  H    2.231743   1.063124   1.983816   3.267046   3.839612
                    6          7          8          9         10
     6  C    0.000000
     7  H    2.123785   0.000000
     8  H    1.285919   2.455959   0.000000
     9  H    2.259448   4.373094   2.767713   0.000000
    10  H    3.438077   4.939144   4.551454   2.626467   0.000000
    11  H    3.881033   4.273547   5.136694   4.410393   2.426081
    12  H    3.414320   2.619823   4.435152   5.018031   4.096657
                   11         12
    11  H    0.000000
    12  H    2.262643   0.000000
 Stoichiometry    C6H6
 Framework group  C1[X(C6H6)]
 Deg. of freedom    30
 Full point group                 C1      NOp   1
 Largest Abelian subgroup         C1      NOp   1
 Largest concise Abelian subgroup C1      NOp   1
                         Standard orientation:                         
 ---------------------------------------------------------------------
 Center     Atomic      Atomic             Coordinates (Angstroms)
 Number     Number       Type             X           Y           Z
 ---------------------------------------------------------------------
      1          6           0        1.242868   -0.745961   -0.142015
      2          6           0        0.010496   -1.372660    0.090619
      3          6           0       -1.205653   -0.694698   -0.055977
      4          6           0       -1.246431    0.691641    0.024894
      5          6           0       -0.006488    1.420844   -0.039727
      6          6           0        1.215774    0.685936    0.037856
      7          1           0        2.118279   -1.236532    0.029850
      8          1           0        2.361236    1.188016    0.336885
      9          1           0        0.019866    2.598047   -0.099046
     10          1           0       -2.184788    1.186601    0.114612
     11          1           0       -2.155228   -1.237100    0.011323
     12          1           0       -0.222755   -2.409650    0.112474
 ---------------------------------------------------------------------
 Rotational constants (GHZ):           5.6402718           5.4429356           2.7872298
 Standard basis: 6-31G(d,p) (6D, 7F)
 There are   120 symmetry adapted cartesian basis functions of A   symmetry.
 There are   120 symmetry adapted basis functions of A   symmetry.
   120 basis functions,   210 primitive gaussians,   120 cartesian basis functions
    21 alpha electrons       21 beta electrons
       nuclear repulsion energy       200.5344825429 Hartrees.
 NAtoms=   12 NActive=   12 NUniq=   12 SFac= 1.00D+00 NAtFMM=   60 NAOKFM=F Big=F
 Integral buffers will be    131072 words long.
 Regular integral format.
 Two-electron integral symmetry is turned on.
 One-electron integrals computed using PRISM.
 NBasis=   120 RedAO= T EigKep=  1.45D-03  NBF=   120
 NBsUse=   120 1.00D-06 EigRej= -1.00D+00 NBFU=   120
 ExpMin= 1.61D-01 ExpMax= 3.05D+03 ExpMxC= 4.57D+02 IAcc=3 IRadAn=         5 AccDes= 0.00D+00
 Harris functional with IExCor=  402 and IRadAn=       5 diagonalized for initial guess.
 HarFok:  IExCor=  402 AccDes= 0.00D+00 IRadAn=         5 IDoV= 1 UseB2=F ITyADJ=14
 ICtDFT=  3500011 ScaDFX=  1.000000  1.000000  1.000000  1.000000
 FoFCou: FMM=F IPFlag=           0 FMFlag=      100000 FMFlg1=           0
         NFxFlg=           0 DoJE=T BraDBF=F KetDBF=T FulRan=T
         wScrn=  0.000000 ICntrl=       500 IOpCl=  0 I1Cent=   200000004 NGrid=           0
         NMat0=    1 NMatS0=      1 NMatT0=    0 NMatD0=    1 NMtDS0=    0 NMtDT0=    0
 Petite list used in FoFCou.
 Keep R1 ints in memory in canonical form, NReq=30147728.
 Requested convergence on RMS density matrix=1.00D-08 within 128 cycles.
 Requested convergence on MAX density matrix=1.00D-06.
 Requested convergence on             energy=1.00D-06.
 No special actions if energy rises.
 Integral accuracy reduced to 1.0D-05 until final iterations.
 Initial convergence to 1.0D-05 achieved.  Increase integral accuracy.
 SCF Done:  E(RB3LYP) =  -232.201148457     A.U. after   13 cycles
            NFock= 13  Conv=0.45D-08     -V/T= 2.0116
 DoSCS=F DFT=T ScalE2(SS,OS)=  1.000000  1.000000
 ExpMin= 1.61D-01 ExpMax= 3.05D+03 ExpMxC= 4.57D+02 IAcc=3 IRadAn=         5 AccDes= 0.00D+00
 HarFok:  IExCor=  205 AccDes= 0.00D+00 IRadAn=         5 IDoV=-2 UseB2=F ITyADJ=14
 ICtDFT= 12500011 ScaDFX=  1.000000  1.000000  1.000000  1.000000
 Range of M.O.s used for correlation:     7   120
 NBasis=   120 NAE=    21 NBE=    21 NFC=     6 NFV=     0
 NROrb=    114 NOA=    15 NOB=    15 NVA=    99 NVB=    99
 Keep R1, R2, and R3 ints in memory in canonical form, NReq=84032236.
 Orbital symmetries:
       Occupied  (A) (A) (A) (A) (A) (A) (A) (A) (A) (A) (A) (A)
                 (A) (A) (A) (A) (A) (A) (A) (A) (A)
       Virtual   (A) (A) (A) (A) (A) (A) (A) (A) (A) (A) (A) (A)
                 (A) (A) (A) (A) (A) (A) (A) (A) (A) (A) (A) (A)
                 (A) (A) (A) (A) (A) (A) (A) (A) (A) (A) (A) (A)
                 (A) (A) (A) (A) (A) (A) (A) (A) (A) (A) (A) (A)
                 (A) (A) (A) (A) (A) (A) (A) (A) (A) (A) (A) (A)
                 (A) (A) (A) (A) (A) (A) (A) (A) (A) (A) (A) (A)
                 (A) (A) (A) (A) (A) (A) (A) (A) (A) (A) (A) (A)
                 (A) (A) (A) (A) (A) (A) (A) (A) (A) (A) (A) (A)
                 (A) (A) (A)
     4 initial guesses have been made.
 Convergence on wavefunction:    0.001000000000000
 Iteration     1 Dimension     4 NMult     0 NNew      4
 CISAX will form     4 AO SS matrices at one time.
 Iteration     2 Dimension     6 NMult     4 NNew      2
 Iteration     3 Dimension     8 NMult     6 NNew      2
 Iteration     4 Dimension    10 NMult     8 NNew      2
 Iteration     5 Dimension    12 NMult    10 NNew      2
 ***********************************************************************
 Excited states from <AA,BB:AA,BB> singles matrix:
 ***********************************************************************
 
 Ground to excited state transition densities written to RWF  633
 Ground to excited state transition electric dipole moments (Au):
       state          X           Y           Z        Dip. S.      Osc.
         1         0.0661      0.1872      0.0014      0.0394      0.0049
 Ground to excited state transition velocity dipole moments (Au):
       state          X           Y           Z        Dip. S.      Osc.
         1        -0.0118     -0.0358      0.0012      0.0014      0.0051
 Ground to excited state transition magnetic dipole moments (Au):
       state          X           Y           Z
         1        -0.0056     -0.0186      0.1772
 Ground to excited state transition velocity quadrupole moments (Au):
       state          XX          YY          ZZ          XY          XZ          YZ
         1        -0.0089     -0.0069      0.0024     -0.0217     -0.0033     -0.0106
 <0|del|b> * <b|rxdel|0> + <0|del|b> * <b|delr+rdel|0>
 Rotatory Strengths (R) in cgs (10**-40 erg-esu-cm/Gauss)
       state          XX          YY          ZZ    R(velocity)    E-M Angle
         1         1.4068      0.8266      1.3805      1.2047       81.87
 1/2[<0|r|b>*<b|rxdel|0> + (<0|rxdel|b>*<b|r|0>)*]
 Rotatory Strengths (R) in cgs (10**-40 erg-esu-cm/Gauss)
       state          XX          YY          ZZ     R(length)
         1         0.2607      2.4674     -0.1791      0.8497
  1/2[<0|del|b>*<b|r|0> + (<0|r|b>*<b|del|0>)*] (Au)
       state          X           Y           Z        Dip. S.   Osc.(frdel)
         1        -0.0008     -0.0067      0.0000      0.0075      0.0050

 Excitation energies and oscillator strengths:
 
 Excited State   1:      Singlet-A      5.0646 eV  244.81 nm  f=0.0049  <S**2>=0.000
      20 -> 23         0.42526
      21 -> 22         0.56414
 This state for optimization and/or second-order correction.
 Total Energy, E(TD-HF/TD-DFT) =  -232.015029338    
 Copying the excited state density for this state as the 1-particle RhoCI density.
 SavETr:  write IOETrn=   770 NScale= 10 NData=  16 NLR=1 NState=    1 LETran=      28.

 **********************************************************************

            Population analysis using the SCF Density.

 **********************************************************************

 Orbital symmetries:
       Occupied  (A) (A) (A) (A) (A) (A) (A) (A) (A) (A) (A) (A)
                 (A) (A) (A) (A) (A) (A) (A) (A) (A)
       Virtual   (A) (A) (A) (A) (A) (A) (A) (A) (A) (A) (A) (A)
                 (A) (A) (A) (A) (A) (A) (A) (A) (A) (A) (A) (A)
                 (A) (A) (A) (A) (A) (A) (A) (A) (A) (A) (A) (A)
                 (A) (A) (A) (A) (A) (A) (A) (A) (A) (A) (A) (A)
                 (A) (A) (A) (A) (A) (A) (A) (A) (A) (A) (A) (A)
                 (A) (A) (A) (A) (A) (A) (A) (A) (A) (A) (A) (A)
                 (A) (A) (A) (A) (A) (A) (A) (A) (A) (A) (A) (A)
                 (A) (A) (A) (A) (A) (A) (A) (A) (A) (A) (A) (A)
                 (A) (A) (A)
 The electronic state is 1-A.
 Alpha  occ. eigenvalues --  -10.21671 -10.20764 -10.19408 -10.19075 -10.18918
 Alpha  occ. eigenvalues --  -10.18638  -0.84190  -0.74116  -0.73220  -0.60635
 Alpha  occ. eigenvalues --   -0.58082  -0.51166  -0.46016  -0.43516  -0.41491
 Alpha  occ. eigenvalues --   -0.39933  -0.35756  -0.34361  -0.32934  -0.24681
 Alpha  occ. eigenvalues --   -0.23853
 Alpha virt. eigenvalues --   -0.01261  -0.00574   0.06798   0.11917   0.13267
 Alpha virt. eigenvalues --    0.13818   0.16382   0.18154   0.19779   0.27942
 Alpha virt. eigenvalues --    0.29301   0.30752   0.32244   0.44913   0.47648
 Alpha virt. eigenvalues --    0.49346   0.52712   0.55193   0.58364   0.58590
 Alpha virt. eigenvalues --    0.59182   0.60912   0.61418   0.62905   0.63584
 Alpha virt. eigenvalues --    0.65736   0.66648   0.72879   0.74936   0.76688
 Alpha virt. eigenvalues --    0.79854   0.83561   0.86402   0.87847   0.91220
 Alpha virt. eigenvalues --    0.94232   0.95111   1.00140   1.06043   1.07038
 Alpha virt. eigenvalues --    1.08438   1.13416   1.19627   1.30789   1.32477
 Alpha virt. eigenvalues --    1.39311   1.41083   1.43340   1.49162   1.50988
 Alpha virt. eigenvalues --    1.68442   1.69753   1.74088   1.78216   1.85804
 Alpha virt. eigenvalues --    1.89437   1.92958   1.96662   1.97280   1.99359
 Alpha virt. eigenvalues --    2.03443   2.06189   2.09995   2.18636   2.20399
 Alpha virt. eigenvalues --    2.26492   2.27881   2.34275   2.36217   2.39119
 Alpha virt. eigenvalues --    2.40167   2.42077   2.44967   2.47952   2.48521
 Alpha virt. eigenvalues --    2.49592   2.50781   2.54345   2.60806   2.62128
 Alpha virt. eigenvalues --    2.71349   2.74250   2.77658   2.93488   2.96262
 Alpha virt. eigenvalues --    3.04111   3.06647   3.22109   3.24008   3.35104
 Alpha virt. eigenvalues --    3.44544   3.57245   3.83297   4.11689   4.16138
 Alpha virt. eigenvalues --    4.16894   4.42193   4.44868   4.73534
          Condensed to atoms (all electrons):
               1          2          3          4          5          6
     1  C    4.845350   0.536976  -0.034287  -0.036717  -0.035854   0.502669
     2  C    0.536976   4.820733   0.533549  -0.033160  -0.041863  -0.030699
     3  C   -0.034287   0.533549   4.837135   0.550305  -0.033724  -0.043639
     4  C   -0.036717  -0.033160   0.550305   4.797984   0.522598  -0.029612
     5  C   -0.035854  -0.041863  -0.033724   0.522598   4.858917   0.527115
     6  C    0.502669  -0.030699  -0.043639  -0.029612   0.527115   4.894637
     7  H    0.376329  -0.043561   0.004631   0.000449   0.004425  -0.042144
     8  H   -0.038039   0.003486   0.000561   0.002538  -0.026392   0.340052
     9  H    0.003346   0.000321   0.003777  -0.035397   0.357292  -0.036904
    10  H    0.000384   0.006082  -0.045050   0.370407  -0.042405   0.004537
    11  H    0.005052  -0.042297   0.369490  -0.043685   0.005097   0.000190
    12  H   -0.042100   0.366082  -0.051835   0.007115   0.000656   0.005250
               7          8          9         10         11         12
     1  C    0.376329  -0.038039   0.003346   0.000384   0.005052  -0.042100
     2  C   -0.043561   0.003486   0.000321   0.006082  -0.042297   0.366082
     3  C    0.004631   0.000561   0.003777  -0.045050   0.369490  -0.051835
     4  C    0.000449   0.002538  -0.035397   0.370407  -0.043685   0.007115
     5  C    0.004425  -0.026392   0.357292  -0.042405   0.005097   0.000656
     6  C   -0.042144   0.340052  -0.036904   0.004537   0.000190   0.005250
     7  H    0.618090  -0.005508  -0.000142   0.000018  -0.000183  -0.005080
     8  H   -0.005508   0.656084  -0.003773  -0.000095   0.000010  -0.000154
     9  H   -0.000142  -0.003773   0.627333  -0.004379  -0.000148   0.000013
    10  H    0.000018  -0.000095  -0.004379   0.628058  -0.007258  -0.000340
    11  H   -0.000183   0.000010  -0.000148  -0.007258   0.640787  -0.010765
    12  H   -0.005080  -0.000154   0.000013  -0.000340  -0.010765   0.647671
 Mulliken charges:
               1
     1  C   -0.083107
     2  C   -0.075648
     3  C   -0.090913
     4  C   -0.072823
     5  C   -0.095862
     6  C   -0.091452
     7  H    0.092675
     8  H    0.071231
     9  H    0.088661
    10  H    0.090042
    11  H    0.083709
    12  H    0.083487
 Sum of Mulliken charges =  -0.00000
 Mulliken charges with hydrogens summed into heavy atoms:
               1
     1  C    0.009568
     2  C    0.007839
     3  C   -0.007203
     4  C    0.017218
     5  C   -0.007200
     6  C   -0.020222
 Electronic spatial extent (au):  <R**2>=            468.4334
 Charge=             -0.0000 electrons
 Dipole moment (field-independent basis, Debye):
    X=             -0.2135    Y=             -0.0952    Z=              0.2986  Tot=              0.3792
 Quadrupole moment (field-independent basis, Debye-Ang):
   XX=            -31.3926   YY=            -32.2322   ZZ=            -38.7851
   XY=             -0.0910   XZ=              0.3675   YZ=             -0.0971
 Traceless Quadrupole moment (field-independent basis, Debye-Ang):
   XX=              2.7440   YY=              1.9044   ZZ=             -4.6485
   XY=             -0.0910   XZ=              0.3675   YZ=             -0.0971
 Octapole moment (field-independent basis, Debye-Ang**2):
  XXX=             -0.8109  YYY=             -0.1250  ZZZ=              0.3389  XYY=             -1.6848
  XXY=             -0.9471  XXZ=              2.1312  XZZ=             -0.2978  YZZ=             -0.5829
  YYZ=              0.4189  XYZ=              0.2835
 Hexadecapole moment (field-independent basis, Debye-Ang**3):
 XXXX=           -279.6918 YYYY=           -277.2026 ZZZZ=            -42.4224 XXXY=             -2.6637
 XXXZ=              2.6845 YYYX=              0.2511 YYYZ=             -2.1340 ZZZX=              0.1065
 ZZZY=             -0.1825 XXYY=            -94.2773 XXZZ=            -62.8188 YYZZ=            -61.6985
 XXYZ=              1.5497 YYXZ=              0.4548 ZZXY=             -0.5192
 N-N= 2.005344825429D+02 E-N=-9.379876533034D+02  KE= 2.295356250576D+02
 1\1\GINC-DESKTOP-PRN5QE3\SP\RB3LYP TD-FC\6-31G(d,p)\C6H6\SHOHEI\10-Nov
 -2023\0\\# TD=(NStates=1) B3LYP/6-31G(d,p)\\EMISPCT\\0,1\C,0,0.3744424
 186,1.3998473232,-0.1275848594\C,0,1.3161268762,0.3858988941,0.0976916
 663\C,0,0.9982359438,-0.9689126611,-0.0558459743\C,0,-0.3233614516,-1.
 3895833895,0.0251186703\C,0,-1.3653748794,-0.3974601349,-0.0320786345\
 C,0,-0.9945372973,0.9792620711,0.0524689662\H,0,0.6058493255,2.3754046
 404,0.0492749869\H,0,-1.7915402386,1.9409456755,0.3583081697\H,0,-2.50
 45973329,-0.6953286784,-0.0909596181\H,0,-0.5412084103,-2.4283204287,0
 .109471232\H,0,1.7808455528,-1.7332072994,0.0057731985\H,0,2.377328324
 7,0.4465135043,0.1179336243\\Version=EM64L-G16RevB.01\State=1-A\HF=-23
 2.2011485\RMSD=4.458e-09\PG=C01 [X(C6H6)]\\@


 ON INDUCTION, OR "WHY DO YOU BELIEVE THE SUN WILL RISE TOMORROW?":

 ... THE FARMER WHO HAS FED THE CHICKEN EVERY DAY THROUGHOUT ITS
 LIFE AT LAST WRINGS ITS NECK INSTEAD, SHOWING THAT MORE REFINED VIEWS
 AS TO THE UNIFORMITY OF NATURE WOULD HAVE BEEN USEFUL TO THE CHICKEN.

                               -- BERTRAND RUSSELL
 Job cpu time:       0 days  0 hours  3 minutes  7.8 seconds.
 Elapsed time:       0 days  0 hours  0 minutes 47.5 seconds.
 File lengths (MBytes):  RWF=    116 Int=      0 D2E=      0 Chk=      3 Scr=      1
 Normal termination of Gaussian 16 at Fri Nov 10 19:48:43 2023.
