 Entering Gaussian System, Link 0=g16
 Input=Geometry-460-.com
 Output=Geometry-460-.log
 Initial command:
 /home/shohei/gaussian/g16/l1.exe "/home/shohei/gaussian/scratch/Gau-30489.inp" -scrdir="/home/shohei/gaussian/scratch/"
 Entering Link 1 = /home/shohei/gaussian/g16/l1.exe PID=     30491.
  
 Copyright (c) 1988-2017, Gaussian, Inc.  All Rights Reserved.
  
 This is part of the Gaussian(R) 16 program.  It is based on
 the Gaussian(R) 09 system (copyright 2009, Gaussian, Inc.),
 the Gaussian(R) 03 system (copyright 2003, Gaussian, Inc.),
 the Gaussian(R) 98 system (copyright 1998, Gaussian, Inc.),
 the Gaussian(R) 94 system (copyright 1995, Gaussian, Inc.),
 the Gaussian 92(TM) system (copyright 1992, Gaussian, Inc.),
 the Gaussian 90(TM) system (copyright 1990, Gaussian, Inc.),
 the Gaussian 88(TM) system (copyright 1988, Gaussian, Inc.),
 the Gaussian 86(TM) system (copyright 1986, Carnegie Mellon
 University), and the Gaussian 82(TM) system (copyright 1983,
 Carnegie Mellon University). Gaussian is a federally registered
 trademark of Gaussian, Inc.
  
 This software contains proprietary and confidential information,
 including trade secrets, belonging to Gaussian, Inc.
  
 This software is provided under written license and may be
 used, copied, transmitted, or stored only in accord with that
 written license.
  
 The following legend is applicable only to US Government
 contracts under FAR:
  
                    RESTRICTED RIGHTS LEGEND
  
 Use, reproduction and disclosure by the US Government is
 subject to restrictions as set forth in subparagraphs (a)
 and (c) of the Commercial Computer Software - Restricted
 Rights clause in FAR 52.227-19.
  
 Gaussian, Inc.
 340 Quinnipiac St., Bldg. 40, Wallingford CT 06492
  
  
 ---------------------------------------------------------------
 Warning -- This program may not be used in any manner that
 competes with the business of Gaussian, Inc. or will provide
 assistance to any competitor of Gaussian, Inc.  The licensee
 of this program is prohibited from giving any competitor of
 Gaussian, Inc. access to this program.  By using this program,
 the user acknowledges that Gaussian, Inc. is engaged in the
 business of creating and licensing software in the field of
 computational chemistry and represents and warrants to the
 licensee that it is not a competitor of Gaussian, Inc. and that
 it will not use this program in any manner prohibited above.
 ---------------------------------------------------------------
  

 Cite this work as:
 Gaussian 16, Revision B.01,
 M. J. Frisch, G. W. Trucks, H. B. Schlegel, G. E. Scuseria, 
 M. A. Robb, J. R. Cheeseman, G. Scalmani, V. Barone, 
 G. A. Petersson, H. Nakatsuji, X. Li, M. Caricato, A. V. Marenich, 
 J. Bloino, B. G. Janesko, R. Gomperts, B. Mennucci, H. P. Hratchian, 
 J. V. Ortiz, A. F. Izmaylov, J. L. Sonnenberg, D. Williams-Young, 
 F. Ding, F. Lipparini, F. Egidi, J. Goings, B. Peng, A. Petrone, 
 T. Henderson, D. Ranasinghe, V. G. Zakrzewski, J. Gao, N. Rega, 
 G. Zheng, W. Liang, M. Hada, M. Ehara, K. Toyota, R. Fukuda, 
 J. Hasegawa, M. Ishida, T. Nakajima, Y. Honda, O. Kitao, H. Nakai, 
 T. Vreven, K. Throssell, J. A. Montgomery, Jr., J. E. Peralta, 
 F. Ogliaro, M. J. Bearpark, J. J. Heyd, E. N. Brothers, K. N. Kudin, 
 V. N. Staroverov, T. A. Keith, R. Kobayashi, J. Normand, 
 K. Raghavachari, A. P. Rendell, J. C. Burant, S. S. Iyengar, 
 J. Tomasi, M. Cossi, J. M. Millam, M. Klene, C. Adamo, R. Cammi, 
 J. W. Ochterski, R. L. Martin, K. Morokuma, O. Farkas, 
 J. B. Foresman, and D. J. Fox, Gaussian, Inc., Wallingford CT, 2016.
 
 ******************************************
 Gaussian 16:  EM64L-G16RevB.01 20-Dec-2017
                10-Nov-2023 
 ******************************************
 %nproc=4
 Will use up to    4 processors via shared memory.
 %Mem=2Gb
 ---------------------------------
 # TD=(NStates=1) B3LYP/6-31G(d,p)
 ---------------------------------
 1/38=1,172=1/1;
 2/12=2,17=6,18=5,40=1/2;
 3/5=1,6=6,7=101,11=9,25=1,30=1,74=-5/1,2,3,8;
 4//1;
 5/5=2,38=5/2;
 8/6=1,10=2,108=1/1;
 9/41=1,42=1,70=2/14;
 6/7=2,8=2,9=2,10=2/1;
 99/5=1,9=1/99;
 -------
 EMISPCT
 -------
 Symbolic Z-matrix:
 Charge =  0 Multiplicity = 1
 6                     0.29864   1.42984   0.10926 
 6                     1.39931   0.40758  -0.0259 
 6                     1.02016  -0.98095  -0.07208 
 6                    -0.39256  -1.40341   0.06233 
 6                    -1.37847  -0.45833  -0.0555 
 6                    -0.93437   0.97566  -0.01831 
 1                     0.53813   2.49972  -0.04178 
 1                    -1.69829   1.85278  -0.31062 
 1                    -2.54764  -0.39741   0.10866 
 1                    -0.64034  -2.47669   0.29336 
 1                     1.67898  -1.76258   0.00735 
 1                     2.51235   0.5936   -0.05418 
 
                          Input orientation:                          
 ---------------------------------------------------------------------
 Center     Atomic      Atomic             Coordinates (Angstroms)
 Number     Number       Type             X           Y           Z
 ---------------------------------------------------------------------
      1          6           0        0.298644    1.429841    0.109261
      2          6           0        1.399314    0.407577   -0.025902
      3          6           0        1.020161   -0.980946   -0.072081
      4          6           0       -0.392562   -1.403413    0.062326
      5          6           0       -1.378475   -0.458326   -0.055501
      6          6           0       -0.934369    0.975661   -0.018308
      7          1           0        0.538128    2.499720   -0.041780
      8          1           0       -1.698288    1.852777   -0.310618
      9          1           0       -2.547635   -0.397406    0.108661
     10          1           0       -0.640336   -2.476685    0.293363
     11          1           0        1.678980   -1.762585    0.007349
     12          1           0        2.512350    0.593601   -0.054181
 ---------------------------------------------------------------------
                    Distance matrix (angstroms):
                    1          2          3          4          5
     1  C    0.000000
     2  C    1.508232   0.000000
     3  C    2.522968   1.440100   0.000000
     4  C    2.916726   2.549174   1.480652   0.000000
     5  C    2.530820   2.909772   2.454966   1.370801   0.000000
     6  C    1.320179   2.401843   2.766114   2.441321   1.501643
     7  H    1.106711   2.262511   3.514017   4.013909   3.524712
     8  H    2.083965   3.429985   3.934063   3.527999   2.347033
     9  H    3.382327   4.030448   3.619718   2.378768   1.182200
    10  H    4.022005   3.546981   2.264516   1.125471   2.177229
    11  H    3.479554   2.188361   1.025335   2.103168   3.324616
    12  H    2.372025   1.128828   2.169366   3.527060   4.030517
                    6          7          8          9         10
     6  C    0.000000
     7  H    2.119329   0.000000
     8  H    1.199312   2.343580   0.000000
     9  H    2.122278   4.235317   2.441415   0.000000
    10  H    3.478834   5.125008   4.497588   2.827597   0.000000
    11  H    3.785266   4.412618   4.957609   4.442776   2.443558
    12  H    3.468014   2.744265   4.402357   5.158688   4.414394
                   11         12
    11  H    0.000000
    12  H    2.499981   0.000000
 Stoichiometry    C6H6
 Framework group  C1[X(C6H6)]
 Deg. of freedom    30
 Full point group                 C1      NOp   1
 Largest Abelian subgroup         C1      NOp   1
 Largest concise Abelian subgroup C1      NOp   1
                         Standard orientation:                         
 ---------------------------------------------------------------------
 Center     Atomic      Atomic             Coordinates (Angstroms)
 Number     Number       Type             X           Y           Z
 ---------------------------------------------------------------------
      1          6           0       -1.434930   -0.250311    0.126764
      2          6           0       -0.896008    1.150884   -0.018081
      3          6           0        0.533394    1.314196   -0.081525
      4          6           0        1.451686    0.159589    0.044777
      5          6           0        0.938831   -1.106997   -0.064012
      6          6           0       -0.557001   -1.226896   -0.008873
      7          1           0       -2.518961   -0.425482   -0.011075
      8          1           0       -1.091222   -2.262532   -0.292450
      9          1           0        1.318249   -2.214830    0.098298
     10          1           0        2.542890    0.328511    0.262548
     11          1           0        1.015471    2.216296   -0.009912
     12          1           0       -1.482264    2.115249   -0.041717
 ---------------------------------------------------------------------
 Rotational constants (GHZ):           5.5688215           5.2085937           2.7057920
 Standard basis: 6-31G(d,p) (6D, 7F)
 There are   120 symmetry adapted cartesian basis functions of A   symmetry.
 There are   120 symmetry adapted basis functions of A   symmetry.
   120 basis functions,   210 primitive gaussians,   120 cartesian basis functions
    21 alpha electrons       21 beta electrons
       nuclear repulsion energy       197.9390514701 Hartrees.
 NAtoms=   12 NActive=   12 NUniq=   12 SFac= 1.00D+00 NAtFMM=   60 NAOKFM=F Big=F
 Integral buffers will be    131072 words long.
 Regular integral format.
 Two-electron integral symmetry is turned on.
 One-electron integrals computed using PRISM.
 NBasis=   120 RedAO= T EigKep=  1.01D-03  NBF=   120
 NBsUse=   120 1.00D-06 EigRej= -1.00D+00 NBFU=   120
 ExpMin= 1.61D-01 ExpMax= 3.05D+03 ExpMxC= 4.57D+02 IAcc=3 IRadAn=         5 AccDes= 0.00D+00
 Harris functional with IExCor=  402 and IRadAn=       5 diagonalized for initial guess.
 HarFok:  IExCor=  402 AccDes= 0.00D+00 IRadAn=         5 IDoV= 1 UseB2=F ITyADJ=14
 ICtDFT=  3500011 ScaDFX=  1.000000  1.000000  1.000000  1.000000
 FoFCou: FMM=F IPFlag=           0 FMFlag=      100000 FMFlg1=           0
         NFxFlg=           0 DoJE=T BraDBF=F KetDBF=T FulRan=T
         wScrn=  0.000000 ICntrl=       500 IOpCl=  0 I1Cent=   200000004 NGrid=           0
         NMat0=    1 NMatS0=      1 NMatT0=    0 NMatD0=    1 NMtDS0=    0 NMtDT0=    0
 Petite list used in FoFCou.
 Keep R1 ints in memory in canonical form, NReq=30147728.
 Requested convergence on RMS density matrix=1.00D-08 within 128 cycles.
 Requested convergence on MAX density matrix=1.00D-06.
 Requested convergence on             energy=1.00D-06.
 No special actions if energy rises.
 Integral accuracy reduced to 1.0D-05 until final iterations.
 Initial convergence to 1.0D-05 achieved.  Increase integral accuracy.
 SCF Done:  E(RB3LYP) =  -232.193319579     A.U. after   13 cycles
            NFock= 13  Conv=0.66D-08     -V/T= 2.0129
 DoSCS=F DFT=T ScalE2(SS,OS)=  1.000000  1.000000
 ExpMin= 1.61D-01 ExpMax= 3.05D+03 ExpMxC= 4.57D+02 IAcc=3 IRadAn=         5 AccDes= 0.00D+00
 HarFok:  IExCor=  205 AccDes= 0.00D+00 IRadAn=         5 IDoV=-2 UseB2=F ITyADJ=14
 ICtDFT= 12500011 ScaDFX=  1.000000  1.000000  1.000000  1.000000
 Range of M.O.s used for correlation:     7   120
 NBasis=   120 NAE=    21 NBE=    21 NFC=     6 NFV=     0
 NROrb=    114 NOA=    15 NOB=    15 NVA=    99 NVB=    99
 Keep R1, R2, and R3 ints in memory in canonical form, NReq=84032236.
 Orbital symmetries:
       Occupied  (A) (A) (A) (A) (A) (A) (A) (A) (A) (A) (A) (A)
                 (A) (A) (A) (A) (A) (A) (A) (A) (A)
       Virtual   (A) (A) (A) (A) (A) (A) (A) (A) (A) (A) (A) (A)
                 (A) (A) (A) (A) (A) (A) (A) (A) (A) (A) (A) (A)
                 (A) (A) (A) (A) (A) (A) (A) (A) (A) (A) (A) (A)
                 (A) (A) (A) (A) (A) (A) (A) (A) (A) (A) (A) (A)
                 (A) (A) (A) (A) (A) (A) (A) (A) (A) (A) (A) (A)
                 (A) (A) (A) (A) (A) (A) (A) (A) (A) (A) (A) (A)
                 (A) (A) (A) (A) (A) (A) (A) (A) (A) (A) (A) (A)
                 (A) (A) (A) (A) (A) (A) (A) (A) (A) (A) (A) (A)
                 (A) (A) (A)
     4 initial guesses have been made.
 Convergence on wavefunction:    0.001000000000000
 Iteration     1 Dimension     4 NMult     0 NNew      4
 CISAX will form     4 AO SS matrices at one time.
 New state      1 was old state      2
 Iteration     2 Dimension     6 NMult     4 NNew      2
 Iteration     3 Dimension     8 NMult     6 NNew      2
 Iteration     4 Dimension    10 NMult     8 NNew      2
 Iteration     5 Dimension    12 NMult    10 NNew      2
 Iteration     6 Dimension    14 NMult    12 NNew      2
 ***********************************************************************
 Excited states from <AA,BB:AA,BB> singles matrix:
 ***********************************************************************
 
 Ground to excited state transition densities written to RWF  633
 Ground to excited state transition electric dipole moments (Au):
       state          X           Y           Z        Dip. S.      Osc.
         1        -0.1269      0.1030      0.0114      0.0268      0.0034
 Ground to excited state transition velocity dipole moments (Au):
       state          X           Y           Z        Dip. S.      Osc.
         1         0.0261     -0.0217     -0.0019      0.0012      0.0041
 Ground to excited state transition magnetic dipole moments (Au):
       state          X           Y           Z
         1         0.0044      0.0502     -0.0970
 Ground to excited state transition velocity quadrupole moments (Au):
       state          XX          YY          ZZ          XY          XZ          YZ
         1        -0.0175     -0.0245      0.0158     -0.0042     -0.0161      0.0266
 <0|del|b> * <b|rxdel|0> + <0|del|b> * <b|delr+rdel|0>
 Rotatory Strengths (R) in cgs (10**-40 erg-esu-cm/Gauss)
       state          XX          YY          ZZ    R(velocity)    E-M Angle
         1        -2.3185      1.8441     -2.4639     -0.9794      102.24
 1/2[<0|r|b>*<b|rxdel|0> + (<0|rxdel|b>*<b|r|0>)*]
 Rotatory Strengths (R) in cgs (10**-40 erg-esu-cm/Gauss)
       state          XX          YY          ZZ     R(length)
         1         0.3916     -3.6583      0.7803     -0.8288
  1/2[<0|del|b>*<b|r|0> + (<0|r|b>*<b|del|0>)*] (Au)
       state          X           Y           Z        Dip. S.   Osc.(frdel)
         1        -0.0033     -0.0022     -0.0000      0.0056      0.0037

 Excitation energies and oscillator strengths:
 
 Excited State   1:      Singlet-A      5.1508 eV  240.71 nm  f=0.0034  <S**2>=0.000
      20 -> 22         0.43690
      20 -> 23         0.15527
      21 -> 22        -0.24837
      21 -> 23         0.47208
 This state for optimization and/or second-order correction.
 Total Energy, E(TD-HF/TD-DFT) =  -232.004030371    
 Copying the excited state density for this state as the 1-particle RhoCI density.
 SavETr:  write IOETrn=   770 NScale= 10 NData=  16 NLR=1 NState=    1 LETran=      28.

 **********************************************************************

            Population analysis using the SCF Density.

 **********************************************************************

 Orbital symmetries:
       Occupied  (A) (A) (A) (A) (A) (A) (A) (A) (A) (A) (A) (A)
                 (A) (A) (A) (A) (A) (A) (A) (A) (A)
       Virtual   (A) (A) (A) (A) (A) (A) (A) (A) (A) (A) (A) (A)
                 (A) (A) (A) (A) (A) (A) (A) (A) (A) (A) (A) (A)
                 (A) (A) (A) (A) (A) (A) (A) (A) (A) (A) (A) (A)
                 (A) (A) (A) (A) (A) (A) (A) (A) (A) (A) (A) (A)
                 (A) (A) (A) (A) (A) (A) (A) (A) (A) (A) (A) (A)
                 (A) (A) (A) (A) (A) (A) (A) (A) (A) (A) (A) (A)
                 (A) (A) (A) (A) (A) (A) (A) (A) (A) (A) (A) (A)
                 (A) (A) (A) (A) (A) (A) (A) (A) (A) (A) (A) (A)
                 (A) (A) (A)
 The electronic state is 1-A.
 Alpha  occ. eigenvalues --  -10.21157 -10.20733 -10.20547 -10.19823 -10.19619
 Alpha  occ. eigenvalues --  -10.19582  -0.83255  -0.74345  -0.72331  -0.59706
 Alpha  occ. eigenvalues --   -0.58287  -0.50296  -0.45951  -0.42981  -0.41643
 Alpha  occ. eigenvalues --   -0.40138  -0.35179  -0.33486  -0.32366  -0.25329
 Alpha  occ. eigenvalues --   -0.23621
 Alpha virt. eigenvalues --   -0.01620  -0.00303   0.07509   0.12149   0.12626
 Alpha virt. eigenvalues --    0.13751   0.14923   0.17394   0.17888   0.25722
 Alpha virt. eigenvalues --    0.26982   0.29611   0.33109   0.44228   0.49537
 Alpha virt. eigenvalues --    0.51213   0.52573   0.54301   0.57820   0.58152
 Alpha virt. eigenvalues --    0.58942   0.59983   0.61374   0.62889   0.65514
 Alpha virt. eigenvalues --    0.66562   0.68098   0.73055   0.76707   0.79495
 Alpha virt. eigenvalues --    0.80056   0.83072   0.84344   0.90264   0.91463
 Alpha virt. eigenvalues --    0.92378   0.94511   1.02335   1.05292   1.08235
 Alpha virt. eigenvalues --    1.10095   1.11808   1.21816   1.27177   1.28478
 Alpha virt. eigenvalues --    1.33879   1.41410   1.43959   1.50382   1.55413
 Alpha virt. eigenvalues --    1.64869   1.69874   1.74570   1.78739   1.83800
 Alpha virt. eigenvalues --    1.86282   1.90455   1.91950   1.94798   1.99003
 Alpha virt. eigenvalues --    2.00573   2.03210   2.10200   2.16278   2.23684
 Alpha virt. eigenvalues --    2.28486   2.29887   2.31859   2.35119   2.37272
 Alpha virt. eigenvalues --    2.38861   2.40541   2.42799   2.44661   2.45728
 Alpha virt. eigenvalues --    2.49241   2.52855   2.55211   2.59188   2.60718
 Alpha virt. eigenvalues --    2.69802   2.70173   2.76046   2.82875   2.94838
 Alpha virt. eigenvalues --    3.04379   3.10503   3.17001   3.21944   3.31487
 Alpha virt. eigenvalues --    3.42549   3.47055   3.77440   4.09013   4.16497
 Alpha virt. eigenvalues --    4.18653   4.42115   4.44692   4.73926
          Condensed to atoms (all electrons):
               1          2          3          4          5          6
     1  C    4.807534   0.470569  -0.035458  -0.027375  -0.037282   0.593767
     2  C    0.470569   4.904359   0.551286  -0.027469  -0.036935  -0.037795
     3  C   -0.035458   0.551286   4.840739   0.485316  -0.032914  -0.036118
     4  C   -0.027375  -0.027469   0.485316   4.852063   0.572429  -0.040205
     5  C   -0.037282  -0.036935  -0.032914   0.572429   4.851611   0.464481
     6  C    0.593767  -0.037795  -0.036118  -0.040205   0.464481   4.876085
     7  H    0.369379  -0.040516   0.003284   0.000230   0.004717  -0.038601
     8  H   -0.042801   0.004903   0.000579   0.003314  -0.032995   0.351282
     9  H    0.004518   0.000331   0.003056  -0.029319   0.355398  -0.047051
    10  H    0.000285   0.003630  -0.037937   0.362606  -0.040412   0.004386
    11  H    0.004434  -0.041782   0.378866  -0.047401   0.005247   0.000322
    12  H   -0.032586   0.360777  -0.040240   0.003755   0.000398   0.003759
               7          8          9         10         11         12
     1  C    0.369379  -0.042801   0.004518   0.000285   0.004434  -0.032586
     2  C   -0.040516   0.004903   0.000331   0.003630  -0.041782   0.360777
     3  C    0.003284   0.000579   0.003056  -0.037937   0.378866  -0.040240
     4  C    0.000230   0.003314  -0.029319   0.362606  -0.047401   0.003755
     5  C    0.004717  -0.032995   0.355398  -0.040412   0.005247   0.000398
     6  C   -0.038601   0.351282  -0.047051   0.004386   0.000322   0.003759
     7  H    0.619866  -0.010417  -0.000191   0.000011  -0.000107  -0.002227
     8  H   -0.010417   0.659213  -0.004507  -0.000126   0.000008  -0.000167
     9  H   -0.000191  -0.004507   0.623982  -0.003495  -0.000127   0.000007
    10  H    0.000011  -0.000126  -0.003495   0.621665  -0.005309  -0.000116
    11  H   -0.000107   0.000008  -0.000127  -0.005309   0.622106  -0.005234
    12  H   -0.002227  -0.000167   0.000007  -0.000116  -0.005234   0.616548
 Mulliken charges:
               1
     1  C   -0.074983
     2  C   -0.111357
     3  C   -0.080458
     4  C   -0.107944
     5  C   -0.073745
     6  C   -0.094312
     7  H    0.094571
     8  H    0.071715
     9  H    0.097398
    10  H    0.094813
    11  H    0.088977
    12  H    0.095325
 Sum of Mulliken charges =  -0.00000
 Mulliken charges with hydrogens summed into heavy atoms:
               1
     1  C    0.019588
     2  C   -0.016032
     3  C    0.008519
     4  C   -0.013131
     5  C    0.023653
     6  C   -0.022598
 Electronic spatial extent (au):  <R**2>=            479.3653
 Charge=             -0.0000 electrons
 Dipole moment (field-independent basis, Debye):
    X=             -0.0372    Y=              0.1502    Z=              0.0480  Tot=              0.1620
 Quadrupole moment (field-independent basis, Debye-Ang):
   XX=            -31.7433   YY=            -31.6803   ZZ=            -39.0341
   XY=              0.3567   XZ=              0.9876   YZ=              0.2603
 Traceless Quadrupole moment (field-independent basis, Debye-Ang):
   XX=              2.4093   YY=              2.4723   ZZ=             -4.8815
   XY=              0.3567   XZ=              0.9876   YZ=              0.2603
 Octapole moment (field-independent basis, Debye-Ang**2):
  XXX=             -0.9822  YYY=              1.2606  ZZZ=              0.1211  XYY=              0.1851
  XXY=              1.3168  XXZ=              0.8172  XZZ=              0.0685  YZZ=              0.1026
  YYZ=             -0.4271  XYZ=             -0.5787
 Hexadecapole moment (field-independent basis, Debye-Ang**3):
 XXXX=           -292.3695 YYYY=           -278.8149 ZZZZ=            -42.6975 XXXY=              6.0566
 XXXZ=              5.6063 YYYX=             -3.1295 YYYZ=              1.1038 ZZZX=              0.9104
 ZZZY=              0.2859 XXYY=            -95.8708 XXZZ=            -64.9833 YYZZ=            -63.0212
 XXYZ=              0.7526 YYXZ=              2.5213 ZZXY=              0.6328
 N-N= 1.979390514701D+02 E-N=-9.325639131813D+02  KE= 2.292347602423D+02
 1\1\GINC-DESKTOP-PRN5QE3\SP\RB3LYP TD-FC\6-31G(d,p)\C6H6\SHOHEI\10-Nov
 -2023\0\\# TD=(NStates=1) B3LYP/6-31G(d,p)\\EMISPCT\\0,1\C,0,0.2986440
 261,1.4298405917,0.1092607904\C,0,1.3993136783,0.4075771995,-0.0259024
 717\C,0,1.0201608483,-0.9809463655,-0.072080841\C,0,-0.3925622703,-1.4
 034126517,0.0623263785\C,0,-1.3784747785,-0.4583261121,-0.0555009483\C
 ,0,-0.9343686108,0.9756607308,-0.0183080568\H,0,0.5381282872,2.4997200
 991,-0.0417802247\H,0,-1.6982877695,1.8527769915,-0.3106178749\H,0,-2.
 5476351372,-0.3974058967,0.1086608004\H,0,-0.6403362871,-2.4766853701,
 0.293362587\H,0,1.678980455,-1.7625847904,0.0073488779\H,0,2.512349512
 6,0.5936012823,-0.0541811308\\Version=EM64L-G16RevB.01\State=1-A\HF=-2
 32.1933196\RMSD=6.556e-09\PG=C01 [X(C6H6)]\\@


 A MAN IS EXACTLY AS GREAT AS THE TIDE SURGING
 BENEATH HIM.      - BISMARCK
 Job cpu time:       0 days  0 hours  3 minutes 30.4 seconds.
 Elapsed time:       0 days  0 hours  0 minutes 53.3 seconds.
 File lengths (MBytes):  RWF=    116 Int=      0 D2E=      0 Chk=      3 Scr=      1
 Normal termination of Gaussian 16 at Fri Nov 10 22:29:02 2023.
