 Entering Gaussian System, Link 0=g16
 Input=Geometry-421-.com
 Output=Geometry-421-.log
 Initial command:
 /home/shohei/gaussian/g16/l1.exe "/home/shohei/gaussian/scratch/Gau-27186.inp" -scrdir="/home/shohei/gaussian/scratch/"
 Entering Link 1 = /home/shohei/gaussian/g16/l1.exe PID=     27188.
  
 Copyright (c) 1988-2017, Gaussian, Inc.  All Rights Reserved.
  
 This is part of the Gaussian(R) 16 program.  It is based on
 the Gaussian(R) 09 system (copyright 2009, Gaussian, Inc.),
 the Gaussian(R) 03 system (copyright 2003, Gaussian, Inc.),
 the Gaussian(R) 98 system (copyright 1998, Gaussian, Inc.),
 the Gaussian(R) 94 system (copyright 1995, Gaussian, Inc.),
 the Gaussian 92(TM) system (copyright 1992, Gaussian, Inc.),
 the Gaussian 90(TM) system (copyright 1990, Gaussian, Inc.),
 the Gaussian 88(TM) system (copyright 1988, Gaussian, Inc.),
 the Gaussian 86(TM) system (copyright 1986, Carnegie Mellon
 University), and the Gaussian 82(TM) system (copyright 1983,
 Carnegie Mellon University). Gaussian is a federally registered
 trademark of Gaussian, Inc.
  
 This software contains proprietary and confidential information,
 including trade secrets, belonging to Gaussian, Inc.
  
 This software is provided under written license and may be
 used, copied, transmitted, or stored only in accord with that
 written license.
  
 The following legend is applicable only to US Government
 contracts under FAR:
  
                    RESTRICTED RIGHTS LEGEND
  
 Use, reproduction and disclosure by the US Government is
 subject to restrictions as set forth in subparagraphs (a)
 and (c) of the Commercial Computer Software - Restricted
 Rights clause in FAR 52.227-19.
  
 Gaussian, Inc.
 340 Quinnipiac St., Bldg. 40, Wallingford CT 06492
  
  
 ---------------------------------------------------------------
 Warning -- This program may not be used in any manner that
 competes with the business of Gaussian, Inc. or will provide
 assistance to any competitor of Gaussian, Inc.  The licensee
 of this program is prohibited from giving any competitor of
 Gaussian, Inc. access to this program.  By using this program,
 the user acknowledges that Gaussian, Inc. is engaged in the
 business of creating and licensing software in the field of
 computational chemistry and represents and warrants to the
 licensee that it is not a competitor of Gaussian, Inc. and that
 it will not use this program in any manner prohibited above.
 ---------------------------------------------------------------
  

 Cite this work as:
 Gaussian 16, Revision B.01,
 M. J. Frisch, G. W. Trucks, H. B. Schlegel, G. E. Scuseria, 
 M. A. Robb, J. R. Cheeseman, G. Scalmani, V. Barone, 
 G. A. Petersson, H. Nakatsuji, X. Li, M. Caricato, A. V. Marenich, 
 J. Bloino, B. G. Janesko, R. Gomperts, B. Mennucci, H. P. Hratchian, 
 J. V. Ortiz, A. F. Izmaylov, J. L. Sonnenberg, D. Williams-Young, 
 F. Ding, F. Lipparini, F. Egidi, J. Goings, B. Peng, A. Petrone, 
 T. Henderson, D. Ranasinghe, V. G. Zakrzewski, J. Gao, N. Rega, 
 G. Zheng, W. Liang, M. Hada, M. Ehara, K. Toyota, R. Fukuda, 
 J. Hasegawa, M. Ishida, T. Nakajima, Y. Honda, O. Kitao, H. Nakai, 
 T. Vreven, K. Throssell, J. A. Montgomery, Jr., J. E. Peralta, 
 F. Ogliaro, M. J. Bearpark, J. J. Heyd, E. N. Brothers, K. N. Kudin, 
 V. N. Staroverov, T. A. Keith, R. Kobayashi, J. Normand, 
 K. Raghavachari, A. P. Rendell, J. C. Burant, S. S. Iyengar, 
 J. Tomasi, M. Cossi, J. M. Millam, M. Klene, C. Adamo, R. Cammi, 
 J. W. Ochterski, R. L. Martin, K. Morokuma, O. Farkas, 
 J. B. Foresman, and D. J. Fox, Gaussian, Inc., Wallingford CT, 2016.
 
 ******************************************
 Gaussian 16:  EM64L-G16RevB.01 20-Dec-2017
                10-Nov-2023 
 ******************************************
 %nproc=4
 Will use up to    4 processors via shared memory.
 %Mem=2Gb
 ---------------------------------
 # TD=(NStates=1) B3LYP/6-31G(d,p)
 ---------------------------------
 1/38=1,172=1/1;
 2/12=2,17=6,18=5,40=1/2;
 3/5=1,6=6,7=101,11=9,25=1,30=1,74=-5/1,2,3,8;
 4//1;
 5/5=2,38=5/2;
 8/6=1,10=2,108=1/1;
 9/41=1,42=1,70=2/14;
 6/7=2,8=2,9=2,10=2/1;
 99/5=1,9=1/99;
 -------
 EMISPCT
 -------
 Symbolic Z-matrix:
 Charge =  0 Multiplicity = 1
 6                     0.35689   1.4187   -0.0018 
 6                     1.40586   0.3728   -0.00658 
 6                     1.02801  -1.02579  -0.02134 
 6                    -0.38871  -1.35078   0.00814 
 6                    -1.36417  -0.41998  -0.00461 
 6                    -1.03489   0.99579   0.02723 
 1                     0.62387   2.39416  -0.08458 
 1                    -1.7863    1.78304  -0.08717 
 1                    -2.51354  -0.61591   0.00922 
 1                    -0.50526  -2.55667  -0.12079 
 1                     1.7663   -1.65834   0.21651 
 1                     2.33268   0.7511    0.05252 
 
                          Input orientation:                          
 ---------------------------------------------------------------------
 Center     Atomic      Atomic             Coordinates (Angstroms)
 Number     Number       Type             X           Y           Z
 ---------------------------------------------------------------------
      1          6           0        0.356887    1.418704   -0.001803
      2          6           0        1.405862    0.372798   -0.006576
      3          6           0        1.028012   -1.025791   -0.021335
      4          6           0       -0.388714   -1.350785    0.008140
      5          6           0       -1.364166   -0.419976   -0.004609
      6          6           0       -1.034895    0.995785    0.027227
      7          1           0        0.623874    2.394162   -0.084577
      8          1           0       -1.786304    1.783036   -0.087171
      9          1           0       -2.513536   -0.615914    0.009220
     10          1           0       -0.505264   -2.556671   -0.120786
     11          1           0        1.766299   -1.658341    0.216514
     12          1           0        2.332685    0.751096    0.052519
 ---------------------------------------------------------------------
                    Distance matrix (angstroms):
                    1          2          3          4          5
     1  C    0.000000
     2  C    1.481314   0.000000
     3  C    2.535024   1.448806   0.000000
     4  C    2.868116   2.488263   1.453823   0.000000
     5  C    2.518487   2.881241   2.467754   1.348360   0.000000
     6  C    1.454908   2.519235   2.888722   2.433989   1.453896
     7  H    1.014717   2.168756   3.444329   3.880535   3.446458
     8  H    2.175613   3.490729   3.976710   3.432663   2.244611
     9  H    3.518397   4.042212   3.565318   2.248311   1.166033
    10  H    4.069529   3.499605   2.168967   1.218346   2.305792
    11  H    3.391506   2.074900   1.000879   2.186799   3.373760
    12  H    2.086248   1.002798   2.205664   3.438878   3.878322
                    6          7          8          9         10
     6  C    0.000000
     7  H    2.172434   0.000000
     8  H    1.094288   2.486451   0.000000
     9  H    2.187299   4.348873   2.508609   0.000000
    10  H    3.594769   5.078091   4.524959   2.795818   0.000000
    11  H    3.863535   4.221205   4.955430   4.409831   2.465921
    12  H    3.376552   2.374551   4.248586   5.035518   4.361802
                   11         12
    11  H    0.000000
    12  H    2.480539   0.000000
 Stoichiometry    C6H6
 Framework group  C1[X(C6H6)]
 Deg. of freedom    30
 Full point group                 C1      NOp   1
 Largest Abelian subgroup         C1      NOp   1
 Largest concise Abelian subgroup C1      NOp   1
                         Standard orientation:                         
 ---------------------------------------------------------------------
 Center     Atomic      Atomic             Coordinates (Angstroms)
 Number     Number       Type             X           Y           Z
 ---------------------------------------------------------------------
      1          6           0        1.353843    0.552699    0.000624
      2          6           0        1.134353   -0.912201   -0.012943
      3          6           0       -0.215642   -1.437814   -0.029778
      4          6           0       -1.317834   -0.490468    0.006445
      5          6           0       -1.147382    0.847066    0.001752
      6          6           0        0.187627    1.421865    0.035977
      7          1           0        2.297378    0.917084   -0.080720
      8          1           0        0.375373    2.494506   -0.072006
      9          1           0       -1.987068    1.655880    0.021255
     10          1           0       -2.357769   -1.111369   -0.125406
     11          1           0       -0.286544   -2.408858    0.202183
     12          1           0        1.988843   -1.434126    0.042225
 ---------------------------------------------------------------------
 Rotational constants (GHZ):           5.4157271           5.3587587           2.6962943
 Standard basis: 6-31G(d,p) (6D, 7F)
 There are   120 symmetry adapted cartesian basis functions of A   symmetry.
 There are   120 symmetry adapted basis functions of A   symmetry.
   120 basis functions,   210 primitive gaussians,   120 cartesian basis functions
    21 alpha electrons       21 beta electrons
       nuclear repulsion energy       198.4110848038 Hartrees.
 NAtoms=   12 NActive=   12 NUniq=   12 SFac= 1.00D+00 NAtFMM=   60 NAOKFM=F Big=F
 Integral buffers will be    131072 words long.
 Regular integral format.
 Two-electron integral symmetry is turned on.
 One-electron integrals computed using PRISM.
 NBasis=   120 RedAO= T EigKep=  8.40D-04  NBF=   120
 NBsUse=   120 1.00D-06 EigRej= -1.00D+00 NBFU=   120
 ExpMin= 1.61D-01 ExpMax= 3.05D+03 ExpMxC= 4.57D+02 IAcc=3 IRadAn=         5 AccDes= 0.00D+00
 Harris functional with IExCor=  402 and IRadAn=       5 diagonalized for initial guess.
 HarFok:  IExCor=  402 AccDes= 0.00D+00 IRadAn=         5 IDoV= 1 UseB2=F ITyADJ=14
 ICtDFT=  3500011 ScaDFX=  1.000000  1.000000  1.000000  1.000000
 FoFCou: FMM=F IPFlag=           0 FMFlag=      100000 FMFlg1=           0
         NFxFlg=           0 DoJE=T BraDBF=F KetDBF=T FulRan=T
         wScrn=  0.000000 ICntrl=       500 IOpCl=  0 I1Cent=   200000004 NGrid=           0
         NMat0=    1 NMatS0=      1 NMatT0=    0 NMatD0=    1 NMtDS0=    0 NMtDT0=    0
 Petite list used in FoFCou.
 Keep R1 ints in memory in canonical form, NReq=30147728.
 Requested convergence on RMS density matrix=1.00D-08 within 128 cycles.
 Requested convergence on MAX density matrix=1.00D-06.
 Requested convergence on             energy=1.00D-06.
 No special actions if energy rises.
 Integral accuracy reduced to 1.0D-05 until final iterations.
 Initial convergence to 1.0D-05 achieved.  Increase integral accuracy.
 SCF Done:  E(RB3LYP) =  -232.202426499     A.U. after   12 cycles
            NFock= 12  Conv=0.89D-08     -V/T= 2.0118
 DoSCS=F DFT=T ScalE2(SS,OS)=  1.000000  1.000000
 ExpMin= 1.61D-01 ExpMax= 3.05D+03 ExpMxC= 4.57D+02 IAcc=3 IRadAn=         5 AccDes= 0.00D+00
 HarFok:  IExCor=  205 AccDes= 0.00D+00 IRadAn=         5 IDoV=-2 UseB2=F ITyADJ=14
 ICtDFT= 12500011 ScaDFX=  1.000000  1.000000  1.000000  1.000000
 Range of M.O.s used for correlation:     7   120
 NBasis=   120 NAE=    21 NBE=    21 NFC=     6 NFV=     0
 NROrb=    114 NOA=    15 NOB=    15 NVA=    99 NVB=    99
 Keep R1, R2, and R3 ints in memory in canonical form, NReq=84032236.
 Orbital symmetries:
       Occupied  (A) (A) (A) (A) (A) (A) (A) (A) (A) (A) (A) (A)
                 (A) (A) (A) (A) (A) (A) (A) (A) (A)
       Virtual   (A) (A) (A) (A) (A) (A) (A) (A) (A) (A) (A) (A)
                 (A) (A) (A) (A) (A) (A) (A) (A) (A) (A) (A) (A)
                 (A) (A) (A) (A) (A) (A) (A) (A) (A) (A) (A) (A)
                 (A) (A) (A) (A) (A) (A) (A) (A) (A) (A) (A) (A)
                 (A) (A) (A) (A) (A) (A) (A) (A) (A) (A) (A) (A)
                 (A) (A) (A) (A) (A) (A) (A) (A) (A) (A) (A) (A)
                 (A) (A) (A) (A) (A) (A) (A) (A) (A) (A) (A) (A)
                 (A) (A) (A) (A) (A) (A) (A) (A) (A) (A) (A) (A)
                 (A) (A) (A)
     4 initial guesses have been made.
 Convergence on wavefunction:    0.001000000000000
 Iteration     1 Dimension     4 NMult     0 NNew      4
 CISAX will form     4 AO SS matrices at one time.
 New state      1 was old state      2
 Iteration     2 Dimension     6 NMult     4 NNew      2
 Iteration     3 Dimension     8 NMult     6 NNew      2
 Iteration     4 Dimension    10 NMult     8 NNew      2
 Iteration     5 Dimension    12 NMult    10 NNew      2
 ***********************************************************************
 Excited states from <AA,BB:AA,BB> singles matrix:
 ***********************************************************************
 
 Ground to excited state transition densities written to RWF  633
 Ground to excited state transition electric dipole moments (Au):
       state          X           Y           Z        Dip. S.      Osc.
         1         0.0471     -0.0179      0.0014      0.0025      0.0003
 Ground to excited state transition velocity dipole moments (Au):
       state          X           Y           Z        Dip. S.      Osc.
         1        -0.0083      0.0033      0.0000      0.0001      0.0003
 Ground to excited state transition magnetic dipole moments (Au):
       state          X           Y           Z
         1        -0.0273     -0.0077      0.0342
 Ground to excited state transition velocity quadrupole moments (Au):
       state          XX          YY          ZZ          XY          XZ          YZ
         1        -0.0015      0.0236     -0.0066      0.0084      0.0077     -0.0047
 <0|del|b> * <b|rxdel|0> + <0|del|b> * <b|delr+rdel|0>
 Rotatory Strengths (R) in cgs (10**-40 erg-esu-cm/Gauss)
       state          XX          YY          ZZ    R(velocity)    E-M Angle
         1        -0.0951      0.5046      0.3562      0.2552       59.44
 1/2[<0|r|b>*<b|rxdel|0> + (<0|rxdel|b>*<b|r|0>)*]
 Rotatory Strengths (R) in cgs (10**-40 erg-esu-cm/Gauss)
       state          XX          YY          ZZ     R(length)
         1         0.9104     -0.0981     -0.0341      0.2594
  1/2[<0|del|b>*<b|r|0> + (<0|r|b>*<b|del|0>)*] (Au)
       state          X           Y           Z        Dip. S.   Osc.(frdel)
         1        -0.0004     -0.0001      0.0000      0.0005      0.0003

 Excitation energies and oscillator strengths:
 
 Excited State   1:      Singlet-A      5.0997 eV  243.12 nm  f=0.0003  <S**2>=0.000
      20 -> 22         0.51124
      21 -> 23        -0.48510
 This state for optimization and/or second-order correction.
 Total Energy, E(TD-HF/TD-DFT) =  -232.015017135    
 Copying the excited state density for this state as the 1-particle RhoCI density.
 SavETr:  write IOETrn=   770 NScale= 10 NData=  16 NLR=1 NState=    1 LETran=      28.

 **********************************************************************

            Population analysis using the SCF Density.

 **********************************************************************

 Orbital symmetries:
       Occupied  (A) (A) (A) (A) (A) (A) (A) (A) (A) (A) (A) (A)
                 (A) (A) (A) (A) (A) (A) (A) (A) (A)
       Virtual   (A) (A) (A) (A) (A) (A) (A) (A) (A) (A) (A) (A)
                 (A) (A) (A) (A) (A) (A) (A) (A) (A) (A) (A) (A)
                 (A) (A) (A) (A) (A) (A) (A) (A) (A) (A) (A) (A)
                 (A) (A) (A) (A) (A) (A) (A) (A) (A) (A) (A) (A)
                 (A) (A) (A) (A) (A) (A) (A) (A) (A) (A) (A) (A)
                 (A) (A) (A) (A) (A) (A) (A) (A) (A) (A) (A) (A)
                 (A) (A) (A) (A) (A) (A) (A) (A) (A) (A) (A) (A)
                 (A) (A) (A) (A) (A) (A) (A) (A) (A) (A) (A) (A)
                 (A) (A) (A)
 The electronic state is 1-A.
 Alpha  occ. eigenvalues --  -10.20657 -10.20320 -10.20193 -10.19345 -10.19252
 Alpha  occ. eigenvalues --  -10.19209  -0.82938  -0.73675  -0.72979  -0.60469
 Alpha  occ. eigenvalues --   -0.59203  -0.50934  -0.47339  -0.43432  -0.41582
 Alpha  occ. eigenvalues --   -0.40816  -0.35034  -0.34171  -0.32447  -0.24635
 Alpha  occ. eigenvalues --   -0.23813
 Alpha virt. eigenvalues --   -0.01566  -0.00316   0.07932   0.13417   0.14004
 Alpha virt. eigenvalues --    0.14791   0.16240   0.17882   0.19807   0.27265
 Alpha virt. eigenvalues --    0.27695   0.28913   0.31158   0.47395   0.48732
 Alpha virt. eigenvalues --    0.52091   0.53073   0.53781   0.57682   0.58571
 Alpha virt. eigenvalues --    0.59524   0.60361   0.60738   0.62401   0.63150
 Alpha virt. eigenvalues --    0.66289   0.66487   0.73666   0.76685   0.79816
 Alpha virt. eigenvalues --    0.83537   0.86858   0.88644   0.91135   0.91731
 Alpha virt. eigenvalues --    0.94133   0.95494   1.04073   1.06144   1.06814
 Alpha virt. eigenvalues --    1.11326   1.13420   1.26333   1.26638   1.30067
 Alpha virt. eigenvalues --    1.38445   1.41544   1.41844   1.47135   1.53605
 Alpha virt. eigenvalues --    1.70165   1.72486   1.75444   1.77683   1.88856
 Alpha virt. eigenvalues --    1.90051   1.90888   1.94310   1.97540   2.00218
 Alpha virt. eigenvalues --    2.01035   2.02463   2.04442   2.20213   2.24417
 Alpha virt. eigenvalues --    2.28011   2.29204   2.31966   2.37338   2.40924
 Alpha virt. eigenvalues --    2.43005   2.44290   2.46609   2.48366   2.52039
 Alpha virt. eigenvalues --    2.52708   2.56981   2.59254   2.61104   2.63188
 Alpha virt. eigenvalues --    2.73895   2.74213   2.76698   2.96525   2.98418
 Alpha virt. eigenvalues --    3.08837   3.10902   3.22931   3.33981   3.47771
 Alpha virt. eigenvalues --    3.55694   3.59898   3.88132   4.08120   4.15615
 Alpha virt. eigenvalues --    4.17819   4.42035   4.42806   4.75497
          Condensed to atoms (all electrons):
               1          2          3          4          5          6
     1  C    4.839641   0.514022  -0.030768  -0.034004  -0.035045   0.537016
     2  C    0.514022   4.833559   0.535692  -0.030213  -0.032081  -0.029241
     3  C   -0.030768   0.535692   4.852907   0.499678  -0.038783  -0.034350
     4  C   -0.034004  -0.030213   0.499678   4.831631   0.569698  -0.033897
     5  C   -0.035045  -0.032081  -0.038783   0.569698   4.806466   0.506531
     6  C    0.537016  -0.029241  -0.034350  -0.033897   0.506531   4.863603
     7  H    0.374885  -0.044227   0.004885   0.000249   0.004608  -0.042751
     8  H   -0.042491   0.004239   0.000448   0.004132  -0.036820   0.366310
     9  H    0.003924   0.000237   0.003576  -0.035266   0.361092  -0.043299
    10  H    0.000386   0.003886  -0.045554   0.350004  -0.030667   0.003340
    11  H    0.004377  -0.045940   0.380321  -0.038664   0.004245   0.000529
    12  H   -0.047961   0.374030  -0.042867   0.004784   0.000535   0.005219
               7          8          9         10         11         12
     1  C    0.374885  -0.042491   0.003924   0.000386   0.004377  -0.047961
     2  C   -0.044227   0.004239   0.000237   0.003886  -0.045940   0.374030
     3  C    0.004885   0.000448   0.003576  -0.045554   0.380321  -0.042867
     4  C    0.000249   0.004132  -0.035266   0.350004  -0.038664   0.004784
     5  C    0.004608  -0.036820   0.361092  -0.030667   0.004245   0.000535
     6  C   -0.042751   0.366310  -0.043299   0.003340   0.000529   0.005219
     7  H    0.629292  -0.004999  -0.000154   0.000011  -0.000205  -0.006492
     8  H   -0.004999   0.623306  -0.005086  -0.000102   0.000010  -0.000212
     9  H   -0.000154  -0.005086   0.629854  -0.004799  -0.000121   0.000011
    10  H    0.000011  -0.000102  -0.004799   0.649875  -0.005019  -0.000170
    11  H   -0.000205   0.000010  -0.000121  -0.005019   0.612848  -0.005060
    12  H   -0.006492  -0.000212   0.000011  -0.000170  -0.005060   0.635814
 Mulliken charges:
               1
     1  C   -0.083983
     2  C   -0.083962
     3  C   -0.085185
     4  C   -0.088132
     5  C   -0.079778
     6  C   -0.099009
     7  H    0.084897
     8  H    0.091265
     9  H    0.090030
    10  H    0.078810
    11  H    0.092678
    12  H    0.082368
 Sum of Mulliken charges =  -0.00000
 Mulliken charges with hydrogens summed into heavy atoms:
               1
     1  C    0.000915
     2  C   -0.001594
     3  C    0.007493
     4  C   -0.009323
     5  C    0.010252
     6  C   -0.007743
 Electronic spatial extent (au):  <R**2>=            477.6613
 Charge=             -0.0000 electrons
 Dipole moment (field-independent basis, Debye):
    X=              0.2850    Y=              0.0279    Z=              0.0117  Tot=              0.2866
 Quadrupole moment (field-independent basis, Debye-Ang):
   XX=            -31.7036   YY=            -31.0813   ZZ=            -38.9217
   XY=              0.0203   XZ=              0.0296   YZ=             -0.5803
 Traceless Quadrupole moment (field-independent basis, Debye-Ang):
   XX=              2.1986   YY=              2.8209   ZZ=             -5.0195
   XY=              0.0203   XZ=              0.0296   YZ=             -0.5803
 Octapole moment (field-independent basis, Debye-Ang**2):
  XXX=              4.4743  YYY=              0.3218  ZZZ=              0.0927  XYY=             -0.3172
  XXY=             -0.1637  XXZ=             -0.6408  XZZ=              0.4875  YZZ=             -0.3182
  YYZ=              0.6235  XYZ=             -0.5334
 Hexadecapole moment (field-independent basis, Debye-Ang**3):
 XXXX=           -288.6014 YYYY=           -279.5188 ZZZZ=            -41.1850 XXXY=              0.0890
 XXXZ=              0.5556 YYYX=             -0.0971 YYYZ=             -4.5173 ZZZX=             -0.0840
 ZZZY=             -0.8210 XXYY=            -93.0374 XXZZ=            -63.7645 YYZZ=            -62.6200
 XXYZ=             -0.0187 YYXZ=             -0.2778 ZZXY=             -0.0679
 N-N= 1.984110848038D+02 E-N=-9.337017227634D+02  KE= 2.294964412058D+02
 1\1\GINC-DESKTOP-PRN5QE3\SP\RB3LYP TD-FC\6-31G(d,p)\C6H6\SHOHEI\10-Nov
 -2023\0\\# TD=(NStates=1) B3LYP/6-31G(d,p)\\EMISPCT\\0,1\C,0,0.3568866
 822,1.4187039866,-0.0018033141\C,0,1.4058615578,0.3727976555,-0.006575
 5755\C,0,1.0280121845,-1.0257912982,-0.0213353698\C,0,-0.3887138801,-1
 .3507848225,0.0081402083\C,0,-1.3641664149,-0.4199760147,-0.0046089571
 \C,0,-1.034894709,0.9957850846,0.0272272338\H,0,0.6238739081,2.3941616
 826,-0.084577092\H,0,-1.7863040708,1.7830357774,-0.0871714762\H,0,-2.5
 135357908,-0.6159142883,0.0092195864\H,0,-0.5052638047,-2.5566712699,-
 0.1207861492\H,0,1.7662992325,-1.6583411482,0.2165139639\H,0,2.3326847
 046,0.7510964194,0.0525194179\\Version=EM64L-G16RevB.01\State=1-A\HF=-
 232.2024265\RMSD=8.897e-09\PG=C01 [X(C6H6)]\\@


 REFRAIN FROM ILLUSIONS, INSIST ON WORK AND NOT WORDS,
 PATIENTLY SEEK DIVINE AND SCIENTIFIC TRUTH.
 LAST WORDS OF MARIA MENDELEEVA TO HER SON DMITRI, C. 1850
 Job cpu time:       0 days  0 hours  2 minutes 57.9 seconds.
 Elapsed time:       0 days  0 hours  0 minutes 45.1 seconds.
 File lengths (MBytes):  RWF=    116 Int=      0 D2E=      0 Chk=      3 Scr=      1
 Normal termination of Gaussian 16 at Fri Nov 10 21:56:38 2023.
