 Entering Gaussian System, Link 0=g16
 Input=Geometry-32-.com
 Output=Geometry-32-.log
 Initial command:
 /home/shohei/gaussian/g16/l1.exe "/home/shohei/gaussian/scratch/Gau-15218.inp" -scrdir="/home/shohei/gaussian/scratch/"
 Entering Link 1 = /home/shohei/gaussian/g16/l1.exe PID=     15220.
  
 Copyright (c) 1988-2017, Gaussian, Inc.  All Rights Reserved.
  
 This is part of the Gaussian(R) 16 program.  It is based on
 the Gaussian(R) 09 system (copyright 2009, Gaussian, Inc.),
 the Gaussian(R) 03 system (copyright 2003, Gaussian, Inc.),
 the Gaussian(R) 98 system (copyright 1998, Gaussian, Inc.),
 the Gaussian(R) 94 system (copyright 1995, Gaussian, Inc.),
 the Gaussian 92(TM) system (copyright 1992, Gaussian, Inc.),
 the Gaussian 90(TM) system (copyright 1990, Gaussian, Inc.),
 the Gaussian 88(TM) system (copyright 1988, Gaussian, Inc.),
 the Gaussian 86(TM) system (copyright 1986, Carnegie Mellon
 University), and the Gaussian 82(TM) system (copyright 1983,
 Carnegie Mellon University). Gaussian is a federally registered
 trademark of Gaussian, Inc.
  
 This software contains proprietary and confidential information,
 including trade secrets, belonging to Gaussian, Inc.
  
 This software is provided under written license and may be
 used, copied, transmitted, or stored only in accord with that
 written license.
  
 The following legend is applicable only to US Government
 contracts under FAR:
  
                    RESTRICTED RIGHTS LEGEND
  
 Use, reproduction and disclosure by the US Government is
 subject to restrictions as set forth in subparagraphs (a)
 and (c) of the Commercial Computer Software - Restricted
 Rights clause in FAR 52.227-19.
  
 Gaussian, Inc.
 340 Quinnipiac St., Bldg. 40, Wallingford CT 06492
  
  
 ---------------------------------------------------------------
 Warning -- This program may not be used in any manner that
 competes with the business of Gaussian, Inc. or will provide
 assistance to any competitor of Gaussian, Inc.  The licensee
 of this program is prohibited from giving any competitor of
 Gaussian, Inc. access to this program.  By using this program,
 the user acknowledges that Gaussian, Inc. is engaged in the
 business of creating and licensing software in the field of
 computational chemistry and represents and warrants to the
 licensee that it is not a competitor of Gaussian, Inc. and that
 it will not use this program in any manner prohibited above.
 ---------------------------------------------------------------
  

 Cite this work as:
 Gaussian 16, Revision B.01,
 M. J. Frisch, G. W. Trucks, H. B. Schlegel, G. E. Scuseria, 
 M. A. Robb, J. R. Cheeseman, G. Scalmani, V. Barone, 
 G. A. Petersson, H. Nakatsuji, X. Li, M. Caricato, A. V. Marenich, 
 J. Bloino, B. G. Janesko, R. Gomperts, B. Mennucci, H. P. Hratchian, 
 J. V. Ortiz, A. F. Izmaylov, J. L. Sonnenberg, D. Williams-Young, 
 F. Ding, F. Lipparini, F. Egidi, J. Goings, B. Peng, A. Petrone, 
 T. Henderson, D. Ranasinghe, V. G. Zakrzewski, J. Gao, N. Rega, 
 G. Zheng, W. Liang, M. Hada, M. Ehara, K. Toyota, R. Fukuda, 
 J. Hasegawa, M. Ishida, T. Nakajima, Y. Honda, O. Kitao, H. Nakai, 
 T. Vreven, K. Throssell, J. A. Montgomery, Jr., J. E. Peralta, 
 F. Ogliaro, M. J. Bearpark, J. J. Heyd, E. N. Brothers, K. N. Kudin, 
 V. N. Staroverov, T. A. Keith, R. Kobayashi, J. Normand, 
 K. Raghavachari, A. P. Rendell, J. C. Burant, S. S. Iyengar, 
 J. Tomasi, M. Cossi, J. M. Millam, M. Klene, C. Adamo, R. Cammi, 
 J. W. Ochterski, R. L. Martin, K. Morokuma, O. Farkas, 
 J. B. Foresman, and D. J. Fox, Gaussian, Inc., Wallingford CT, 2016.
 
 ******************************************
 Gaussian 16:  EM64L-G16RevB.01 20-Dec-2017
                10-Nov-2023 
 ******************************************
 %nproc=4
 Will use up to    4 processors via shared memory.
 %Mem=2Gb
 ---------------------------------
 # TD=(NStates=1) B3LYP/6-31G(d,p)
 ---------------------------------
 1/38=1,172=1/1;
 2/12=2,17=6,18=5,40=1/2;
 3/5=1,6=6,7=101,11=9,25=1,30=1,74=-5/1,2,3,8;
 4//1;
 5/5=2,38=5/2;
 8/6=1,10=2,108=1/1;
 9/41=1,42=1,70=2/14;
 6/7=2,8=2,9=2,10=2/1;
 99/5=1,9=1/99;
 -------
 EMISPCT
 -------
 Symbolic Z-matrix:
 Charge =  0 Multiplicity = 1
 6                     0.40414   1.40216  -0.00933 
 6                     1.49555   0.45281  -0.00438 
 6                     0.99511  -0.99968   0.02865 
 6                    -0.39229  -1.40836  -0.03126 
 6                    -1.48176  -0.40149   0.02118 
 6                    -1.01018   0.96271  -0.01461 
 1                     0.60301   2.53994   0.14267 
 1                    -1.9448    1.56595  -0.06305 
 1                    -2.46226  -0.64403   0.13049 
 1                    -0.65772  -2.54543  -0.02386 
 1                     1.93746  -1.72862  -0.03997 
 1                     2.42037   0.70707  -0.0131 
 
                          Input orientation:                          
 ---------------------------------------------------------------------
 Center     Atomic      Atomic             Coordinates (Angstroms)
 Number     Number       Type             X           Y           Z
 ---------------------------------------------------------------------
      1          6           0        0.404138    1.402156   -0.009327
      2          6           0        1.495551    0.452811   -0.004376
      3          6           0        0.995114   -0.999680    0.028647
      4          6           0       -0.392290   -1.408357   -0.031265
      5          6           0       -1.481755   -0.401489    0.021182
      6          6           0       -1.010180    0.962712   -0.014607
      7          1           0        0.603009    2.539942    0.142673
      8          1           0       -1.944801    1.565954   -0.063051
      9          1           0       -2.462262   -0.644028    0.130486
     10          1           0       -0.657716   -2.545427   -0.023862
     11          1           0        1.937459   -1.728622   -0.039967
     12          1           0        2.420372    0.707070   -0.013101
 ---------------------------------------------------------------------
                    Distance matrix (angstroms):
                    1          2          3          4          5
     1  C    0.000000
     2  C    1.446535   0.000000
     3  C    2.473765   1.536638   0.000000
     4  C    2.921261   2.651153   1.447584   0.000000
     5  C    2.609724   3.097553   2.548092   1.484408   0.000000
     6  C    1.481025   2.557106   2.806076   2.450313   1.443852
     7  H    1.164994   2.274725   3.563099   4.075530   3.607356
     8  H    2.355256   3.616428   3.903074   3.355268   2.022953
     9  H    3.524580   4.109200   3.477112   2.212497   1.015956
    10  H    4.087928   3.691391   2.263612   1.167661   2.297290
    11  H    3.486228   2.226027   1.193347   2.351675   3.668248
    12  H    2.132688   0.959176   2.223982   3.519436   4.056683
                    6          7          8          9         10
     6  C    0.000000
     7  H    2.261586   0.000000
     8  H    1.113446   2.735381   0.000000
     9  H    2.170531   4.419695   2.277991   0.000000
    10  H    3.525813   5.241960   4.308315   2.625934   0.000000
    11  H    3.991553   4.476021   5.091827   4.534638   2.720728
    12  H    3.440065   2.585826   4.449147   5.068155   4.478111
                   11         12
    11  H    0.000000
    12  H    2.483249   0.000000
 Stoichiometry    C6H6
 Framework group  C1[X(C6H6)]
 Deg. of freedom    30
 Full point group                 C1      NOp   1
 Largest Abelian subgroup         C1      NOp   1
 Largest concise Abelian subgroup C1      NOp   1
                         Standard orientation:                         
 ---------------------------------------------------------------------
 Center     Atomic      Atomic             Coordinates (Angstroms)
 Number     Number       Type             X           Y           Z
 ---------------------------------------------------------------------
      1          6           0       -0.983581   -1.079993   -0.014506
      2          6           0       -1.543169    0.253882   -0.004308
      3          6           0       -0.452402    1.335621    0.032058
      4          6           0        0.972755    1.089405   -0.029603
      5          6           0        1.505212   -0.295423    0.017426
      6          6           0        0.479347   -1.310703   -0.021500
      7          1           0       -1.664651   -2.013355    0.134458
      8          1           0        1.051189   -2.264656   -0.073797
      9          1           0        2.492038   -0.511506    0.125352
     10          1           0        1.713308    1.992128   -0.019311
     11          1           0       -0.975698    2.406181   -0.032302
     12          1           0       -2.485160    0.434475   -0.011812
 ---------------------------------------------------------------------
 Rotational constants (GHZ):           5.5117368           4.8439599           2.5801280
 Standard basis: 6-31G(d,p) (6D, 7F)
 There are   120 symmetry adapted cartesian basis functions of A   symmetry.
 There are   120 symmetry adapted basis functions of A   symmetry.
   120 basis functions,   210 primitive gaussians,   120 cartesian basis functions
    21 alpha electrons       21 beta electrons
       nuclear repulsion energy       194.2056860820 Hartrees.
 NAtoms=   12 NActive=   12 NUniq=   12 SFac= 1.00D+00 NAtFMM=   60 NAOKFM=F Big=F
 Integral buffers will be    131072 words long.
 Regular integral format.
 Two-electron integral symmetry is turned on.
 One-electron integrals computed using PRISM.
 NBasis=   120 RedAO= T EigKep=  1.00D-03  NBF=   120
 NBsUse=   120 1.00D-06 EigRej= -1.00D+00 NBFU=   120
 ExpMin= 1.61D-01 ExpMax= 3.05D+03 ExpMxC= 4.57D+02 IAcc=3 IRadAn=         5 AccDes= 0.00D+00
 Harris functional with IExCor=  402 and IRadAn=       5 diagonalized for initial guess.
 HarFok:  IExCor=  402 AccDes= 0.00D+00 IRadAn=         5 IDoV= 1 UseB2=F ITyADJ=14
 ICtDFT=  3500011 ScaDFX=  1.000000  1.000000  1.000000  1.000000
 FoFCou: FMM=F IPFlag=           0 FMFlag=      100000 FMFlg1=           0
         NFxFlg=           0 DoJE=T BraDBF=F KetDBF=T FulRan=T
         wScrn=  0.000000 ICntrl=       500 IOpCl=  0 I1Cent=   200000004 NGrid=           0
         NMat0=    1 NMatS0=      1 NMatT0=    0 NMatD0=    1 NMtDS0=    0 NMtDT0=    0
 Petite list used in FoFCou.
 Keep R1 ints in memory in canonical form, NReq=30147728.
 Requested convergence on RMS density matrix=1.00D-08 within 128 cycles.
 Requested convergence on MAX density matrix=1.00D-06.
 Requested convergence on             energy=1.00D-06.
 No special actions if energy rises.
 Integral accuracy reduced to 1.0D-05 until final iterations.
 Initial convergence to 1.0D-05 achieved.  Increase integral accuracy.
 SCF Done:  E(RB3LYP) =  -232.178372731     A.U. after   13 cycles
            NFock= 13  Conv=0.62D-08     -V/T= 2.0142
 DoSCS=F DFT=T ScalE2(SS,OS)=  1.000000  1.000000
 ExpMin= 1.61D-01 ExpMax= 3.05D+03 ExpMxC= 4.57D+02 IAcc=3 IRadAn=         5 AccDes= 0.00D+00
 HarFok:  IExCor=  205 AccDes= 0.00D+00 IRadAn=         5 IDoV=-2 UseB2=F ITyADJ=14
 ICtDFT= 12500011 ScaDFX=  1.000000  1.000000  1.000000  1.000000
 Range of M.O.s used for correlation:     7   120
 NBasis=   120 NAE=    21 NBE=    21 NFC=     6 NFV=     0
 NROrb=    114 NOA=    15 NOB=    15 NVA=    99 NVB=    99
 Keep R1, R2, and R3 ints in memory in canonical form, NReq=84032236.
 Orbital symmetries:
       Occupied  (A) (A) (A) (A) (A) (A) (A) (A) (A) (A) (A) (A)
                 (A) (A) (A) (A) (A) (A) (A) (A) (A)
       Virtual   (A) (A) (A) (A) (A) (A) (A) (A) (A) (A) (A) (A)
                 (A) (A) (A) (A) (A) (A) (A) (A) (A) (A) (A) (A)
                 (A) (A) (A) (A) (A) (A) (A) (A) (A) (A) (A) (A)
                 (A) (A) (A) (A) (A) (A) (A) (A) (A) (A) (A) (A)
                 (A) (A) (A) (A) (A) (A) (A) (A) (A) (A) (A) (A)
                 (A) (A) (A) (A) (A) (A) (A) (A) (A) (A) (A) (A)
                 (A) (A) (A) (A) (A) (A) (A) (A) (A) (A) (A) (A)
                 (A) (A) (A) (A) (A) (A) (A) (A) (A) (A) (A) (A)
                 (A) (A) (A)
     4 initial guesses have been made.
 Convergence on wavefunction:    0.001000000000000
 Iteration     1 Dimension     4 NMult     0 NNew      4
 CISAX will form     4 AO SS matrices at one time.
 Iteration     2 Dimension     6 NMult     4 NNew      2
 Iteration     3 Dimension     8 NMult     6 NNew      2
 Iteration     4 Dimension    10 NMult     8 NNew      2
 Iteration     5 Dimension    12 NMult    10 NNew      2
 ***********************************************************************
 Excited states from <AA,BB:AA,BB> singles matrix:
 ***********************************************************************
 
 Ground to excited state transition densities written to RWF  633
 Ground to excited state transition electric dipole moments (Au):
       state          X           Y           Z        Dip. S.      Osc.
         1         0.1051      0.2022      0.0006      0.0519      0.0061
 Ground to excited state transition velocity dipole moments (Au):
       state          X           Y           Z        Dip. S.      Osc.
         1        -0.0204     -0.0379      0.0002      0.0019      0.0070
 Ground to excited state transition magnetic dipole moments (Au):
       state          X           Y           Z
         1         0.0087     -0.0138     -0.0210
 Ground to excited state transition velocity quadrupole moments (Au):
       state          XX          YY          ZZ          XY          XZ          YZ
         1        -0.0047     -0.0101      0.0058      0.0027      0.0053      0.0040
 <0|del|b> * <b|rxdel|0> + <0|del|b> * <b|delr+rdel|0>
 Rotatory Strengths (R) in cgs (10**-40 erg-esu-cm/Gauss)
       state          XX          YY          ZZ    R(velocity)    E-M Angle
         1         1.4346     -0.5227      0.4534      0.4551       72.56
 1/2[<0|r|b>*<b|rxdel|0> + (<0|rxdel|b>*<b|r|0>)*]
 Rotatory Strengths (R) in cgs (10**-40 erg-esu-cm/Gauss)
       state          XX          YY          ZZ     R(length)
         1        -0.6431      1.9716      0.0086      0.4457
  1/2[<0|del|b>*<b|r|0> + (<0|r|b>*<b|del|0>)*] (Au)
       state          X           Y           Z        Dip. S.   Osc.(frdel)
         1        -0.0021     -0.0077      0.0000      0.0098      0.0065

 Excitation energies and oscillator strengths:
 
 Excited State   1:      Singlet-A      4.8316 eV  256.61 nm  f=0.0061  <S**2>=0.000
      20 -> 22        -0.22673
      20 -> 23        -0.37473
      21 -> 22         0.51301
      21 -> 23        -0.21147
 This state for optimization and/or second-order correction.
 Total Energy, E(TD-HF/TD-DFT) =  -232.000814921    
 Copying the excited state density for this state as the 1-particle RhoCI density.
 SavETr:  write IOETrn=   770 NScale= 10 NData=  16 NLR=1 NState=    1 LETran=      28.

 **********************************************************************

            Population analysis using the SCF Density.

 **********************************************************************

 Orbital symmetries:
       Occupied  (A) (A) (A) (A) (A) (A) (A) (A) (A) (A) (A) (A)
                 (A) (A) (A) (A) (A) (A) (A) (A) (A)
       Virtual   (A) (A) (A) (A) (A) (A) (A) (A) (A) (A) (A) (A)
                 (A) (A) (A) (A) (A) (A) (A) (A) (A) (A) (A) (A)
                 (A) (A) (A) (A) (A) (A) (A) (A) (A) (A) (A) (A)
                 (A) (A) (A) (A) (A) (A) (A) (A) (A) (A) (A) (A)
                 (A) (A) (A) (A) (A) (A) (A) (A) (A) (A) (A) (A)
                 (A) (A) (A) (A) (A) (A) (A) (A) (A) (A) (A) (A)
                 (A) (A) (A) (A) (A) (A) (A) (A) (A) (A) (A) (A)
                 (A) (A) (A) (A) (A) (A) (A) (A) (A) (A) (A) (A)
                 (A) (A) (A)
 The electronic state is 1-A.
 Alpha  occ. eigenvalues --  -10.21850 -10.21607 -10.21464 -10.20581 -10.20231
 Alpha  occ. eigenvalues --  -10.20066  -0.81572  -0.73665  -0.71354  -0.60716
 Alpha  occ. eigenvalues --   -0.58061  -0.49732  -0.48536  -0.42914  -0.41569
 Alpha  occ. eigenvalues --   -0.37948  -0.36610  -0.33974  -0.31210  -0.24339
 Alpha  occ. eigenvalues --   -0.23506
 Alpha virt. eigenvalues --   -0.02113  -0.00970   0.08330   0.11741   0.13063
 Alpha virt. eigenvalues --    0.13523   0.14155   0.17736   0.17935   0.24684
 Alpha virt. eigenvalues --    0.26915   0.27628   0.29479   0.44634   0.47522
 Alpha virt. eigenvalues --    0.49475   0.52123   0.53163   0.57579   0.58112
 Alpha virt. eigenvalues --    0.59989   0.60390   0.60635   0.61241   0.63281
 Alpha virt. eigenvalues --    0.65723   0.66072   0.72843   0.77119   0.78723
 Alpha virt. eigenvalues --    0.81737   0.84816   0.88645   0.89693   0.90976
 Alpha virt. eigenvalues --    0.91759   0.94069   1.03861   1.04873   1.06652
 Alpha virt. eigenvalues --    1.10651   1.15856   1.26500   1.27173   1.32145
 Alpha virt. eigenvalues --    1.38053   1.41302   1.42245   1.45575   1.47384
 Alpha virt. eigenvalues --    1.66692   1.72386   1.74788   1.78679   1.82897
 Alpha virt. eigenvalues --    1.85471   1.87858   1.90259   1.92582   1.95778
 Alpha virt. eigenvalues --    1.96165   1.98359   2.01286   2.17881   2.20203
 Alpha virt. eigenvalues --    2.22623   2.27028   2.32514   2.35480   2.36137
 Alpha virt. eigenvalues --    2.39857   2.43116   2.45437   2.45822   2.47838
 Alpha virt. eigenvalues --    2.50608   2.53589   2.54658   2.57149   2.64043
 Alpha virt. eigenvalues --    2.67652   2.71928   2.72375   2.81767   2.97519
 Alpha virt. eigenvalues --    3.05484   3.09524   3.16497   3.23895   3.33241
 Alpha virt. eigenvalues --    3.42985   3.64174   3.84906   4.04400   4.15535
 Alpha virt. eigenvalues --    4.17129   4.41721   4.42620   4.70951
          Condensed to atoms (all electrons):
               1          2          3          4          5          6
     1  C    4.876614   0.528427  -0.029831  -0.032829  -0.031401   0.495785
     2  C    0.528427   4.827174   0.477499  -0.028141  -0.019567  -0.031140
     3  C   -0.029831   0.477499   4.905149   0.534645  -0.032336  -0.037883
     4  C   -0.032829  -0.028141   0.534645   4.866307   0.494338  -0.035186
     5  C   -0.031401  -0.019567  -0.032336   0.494338   4.846541   0.532546
     6  C    0.495785  -0.031140  -0.037883  -0.035186   0.532546   4.870179
     7  H    0.357481  -0.039674   0.003762   0.000303   0.002943  -0.036454
     8  H   -0.031048   0.002699   0.000531   0.005545  -0.054267   0.363429
     9  H    0.004203   0.000134   0.003639  -0.038890   0.378139  -0.039341
    10  H    0.000249   0.002649  -0.035731   0.356424  -0.039130   0.004149
    11  H    0.004021  -0.045073   0.351206  -0.030942   0.002820   0.000320
    12  H   -0.043316   0.386171  -0.038737   0.003820   0.000136   0.004174
               7          8          9         10         11         12
     1  C    0.357481  -0.031048   0.004203   0.000249   0.004021  -0.043316
     2  C   -0.039674   0.002699   0.000134   0.002649  -0.045073   0.386171
     3  C    0.003762   0.000531   0.003639  -0.035731   0.351206  -0.038737
     4  C    0.000303   0.005545  -0.038890   0.356424  -0.030942   0.003820
     5  C    0.002943  -0.054267   0.378139  -0.039130   0.002820   0.000136
     6  C   -0.036454   0.363429  -0.039341   0.004149   0.000320   0.004174
     7  H    0.630554  -0.003574  -0.000102   0.000007  -0.000147  -0.003676
     8  H   -0.003574   0.636954  -0.007340  -0.000231   0.000006  -0.000104
     9  H   -0.000102  -0.007340   0.604699  -0.003138  -0.000086   0.000008
    10  H    0.000007  -0.000231  -0.003138   0.631211  -0.004217  -0.000081
    11  H   -0.000147   0.000006  -0.000086  -0.004217   0.645045  -0.003985
    12  H   -0.003676  -0.000104   0.000008  -0.000081  -0.003985   0.610351
 Mulliken charges:
               1
     1  C   -0.098356
     2  C   -0.061160
     3  C   -0.101913
     4  C   -0.095394
     5  C   -0.080762
     6  C   -0.090577
     7  H    0.088577
     8  H    0.087401
     9  H    0.098075
    10  H    0.087838
    11  H    0.081031
    12  H    0.085238
 Sum of Mulliken charges =  -0.00000
 Mulliken charges with hydrogens summed into heavy atoms:
               1
     1  C   -0.009778
     2  C    0.024078
     3  C   -0.020882
     4  C   -0.007555
     5  C    0.017313
     6  C   -0.003176
 Electronic spatial extent (au):  <R**2>=            495.8234
 Charge=             -0.0000 electrons
 Dipole moment (field-independent basis, Debye):
    X=              0.0536    Y=             -0.0747    Z=              0.0827  Tot=              0.1237
 Quadrupole moment (field-independent basis, Debye-Ang):
   XX=            -29.7896   YY=            -32.7180   ZZ=            -39.4854
   XY=             -0.6250   XZ=              0.0696   YZ=             -0.2458
 Traceless Quadrupole moment (field-independent basis, Debye-Ang):
   XX=              4.2081   YY=              1.2797   ZZ=             -5.4877
   XY=             -0.6250   XZ=              0.0696   YZ=             -0.2458
 Octapole moment (field-independent basis, Debye-Ang**2):
  XXX=              0.1403  YYY=             -0.0377  ZZZ=              0.1251  XYY=              0.1733
  XXY=             -0.3316  XXZ=              0.8290  XZZ=              0.0406  YZZ=             -0.3408
  YYZ=              0.0201  XYZ=              0.4421
 Hexadecapole moment (field-independent basis, Debye-Ang**3):
 XXXX=           -296.5883 YYYY=           -294.5826 ZZZZ=            -42.0168 XXXY=             -4.7457
 XXXZ=              1.5401 YYYX=             -1.1227 YYYZ=             -1.1259 ZZZX=              0.1768
 ZZZY=             -0.2193 XXYY=            -95.1221 XXZZ=            -68.0277 YYZZ=            -64.6676
 XXYZ=             -1.1153 YYXZ=             -0.8745 ZZXY=             -0.5223
 N-N= 1.942056860820D+02 E-N=-9.247713240323D+02  KE= 2.289261226376D+02
 1\1\GINC-DESKTOP-PRN5QE3\SP\RB3LYP TD-FC\6-31G(d,p)\C6H6\SHOHEI\10-Nov
 -2023\0\\# TD=(NStates=1) B3LYP/6-31G(d,p)\\EMISPCT\\0,1\C,0,0.4041377
 627,1.4021561619,-0.0093274552\C,0,1.4955508507,0.4528105073,-0.004375
 7598\C,0,0.995114417,-0.9996799472,0.0286474496\C,0,-0.3922903148,-1.4
 083573961,-0.0312646061\C,0,-1.4817551178,-0.4014890988,0.0211821711\C
 ,0,-1.0101802882,0.9627119436,-0.01460727\H,0,0.6030085758,2.539942495
 5,0.1426729265\H,0,-1.9448009807,1.5659535337,-0.0630514029\H,0,-2.462
 2617891,-0.6440282057,0.1304861835\H,0,-0.6577158211,-2.5454272052,-0.
 0238622904\H,0,1.9374587026,-1.728622287,-0.0399666025\H,0,2.420372093
 7,0.7070698572,-0.0131013856\\Version=EM64L-G16RevB.01\State=1-A\HF=-2
 32.1783727\RMSD=6.162e-09\PG=C01 [X(C6H6)]\\@


 WOE UNTO THEM THAT CALL EVIL GOOD, AND GOOD EVIL      
 Job cpu time:       0 days  0 hours  3 minutes  3.6 seconds.
 Elapsed time:       0 days  0 hours  0 minutes 46.5 seconds.
 File lengths (MBytes):  RWF=    116 Int=      0 D2E=      0 Chk=      3 Scr=      1
 Normal termination of Gaussian 16 at Fri Nov 10 20:00:14 2023.
