 Entering Gaussian System, Link 0=g16
 Input=Geometry-404-.com
 Output=Geometry-404-.log
 Initial command:
 /home/shohei/gaussian/g16/l1.exe "/home/shohei/gaussian/scratch/Gau-25723.inp" -scrdir="/home/shohei/gaussian/scratch/"
 Entering Link 1 = /home/shohei/gaussian/g16/l1.exe PID=     25725.
  
 Copyright (c) 1988-2017, Gaussian, Inc.  All Rights Reserved.
  
 This is part of the Gaussian(R) 16 program.  It is based on
 the Gaussian(R) 09 system (copyright 2009, Gaussian, Inc.),
 the Gaussian(R) 03 system (copyright 2003, Gaussian, Inc.),
 the Gaussian(R) 98 system (copyright 1998, Gaussian, Inc.),
 the Gaussian(R) 94 system (copyright 1995, Gaussian, Inc.),
 the Gaussian 92(TM) system (copyright 1992, Gaussian, Inc.),
 the Gaussian 90(TM) system (copyright 1990, Gaussian, Inc.),
 the Gaussian 88(TM) system (copyright 1988, Gaussian, Inc.),
 the Gaussian 86(TM) system (copyright 1986, Carnegie Mellon
 University), and the Gaussian 82(TM) system (copyright 1983,
 Carnegie Mellon University). Gaussian is a federally registered
 trademark of Gaussian, Inc.
  
 This software contains proprietary and confidential information,
 including trade secrets, belonging to Gaussian, Inc.
  
 This software is provided under written license and may be
 used, copied, transmitted, or stored only in accord with that
 written license.
  
 The following legend is applicable only to US Government
 contracts under FAR:
  
                    RESTRICTED RIGHTS LEGEND
  
 Use, reproduction and disclosure by the US Government is
 subject to restrictions as set forth in subparagraphs (a)
 and (c) of the Commercial Computer Software - Restricted
 Rights clause in FAR 52.227-19.
  
 Gaussian, Inc.
 340 Quinnipiac St., Bldg. 40, Wallingford CT 06492
  
  
 ---------------------------------------------------------------
 Warning -- This program may not be used in any manner that
 competes with the business of Gaussian, Inc. or will provide
 assistance to any competitor of Gaussian, Inc.  The licensee
 of this program is prohibited from giving any competitor of
 Gaussian, Inc. access to this program.  By using this program,
 the user acknowledges that Gaussian, Inc. is engaged in the
 business of creating and licensing software in the field of
 computational chemistry and represents and warrants to the
 licensee that it is not a competitor of Gaussian, Inc. and that
 it will not use this program in any manner prohibited above.
 ---------------------------------------------------------------
  

 Cite this work as:
 Gaussian 16, Revision B.01,
 M. J. Frisch, G. W. Trucks, H. B. Schlegel, G. E. Scuseria, 
 M. A. Robb, J. R. Cheeseman, G. Scalmani, V. Barone, 
 G. A. Petersson, H. Nakatsuji, X. Li, M. Caricato, A. V. Marenich, 
 J. Bloino, B. G. Janesko, R. Gomperts, B. Mennucci, H. P. Hratchian, 
 J. V. Ortiz, A. F. Izmaylov, J. L. Sonnenberg, D. Williams-Young, 
 F. Ding, F. Lipparini, F. Egidi, J. Goings, B. Peng, A. Petrone, 
 T. Henderson, D. Ranasinghe, V. G. Zakrzewski, J. Gao, N. Rega, 
 G. Zheng, W. Liang, M. Hada, M. Ehara, K. Toyota, R. Fukuda, 
 J. Hasegawa, M. Ishida, T. Nakajima, Y. Honda, O. Kitao, H. Nakai, 
 T. Vreven, K. Throssell, J. A. Montgomery, Jr., J. E. Peralta, 
 F. Ogliaro, M. J. Bearpark, J. J. Heyd, E. N. Brothers, K. N. Kudin, 
 V. N. Staroverov, T. A. Keith, R. Kobayashi, J. Normand, 
 K. Raghavachari, A. P. Rendell, J. C. Burant, S. S. Iyengar, 
 J. Tomasi, M. Cossi, J. M. Millam, M. Klene, C. Adamo, R. Cammi, 
 J. W. Ochterski, R. L. Martin, K. Morokuma, O. Farkas, 
 J. B. Foresman, and D. J. Fox, Gaussian, Inc., Wallingford CT, 2016.
 
 ******************************************
 Gaussian 16:  EM64L-G16RevB.01 20-Dec-2017
                10-Nov-2023 
 ******************************************
 %nproc=4
 Will use up to    4 processors via shared memory.
 %Mem=2Gb
 ---------------------------------
 # TD=(NStates=1) B3LYP/6-31G(d,p)
 ---------------------------------
 1/38=1,172=1/1;
 2/12=2,17=6,18=5,40=1/2;
 3/5=1,6=6,7=101,11=9,25=1,30=1,74=-5/1,2,3,8;
 4//1;
 5/5=2,38=5/2;
 8/6=1,10=2,108=1/1;
 9/41=1,42=1,70=2/14;
 6/7=2,8=2,9=2,10=2/1;
 99/5=1,9=1/99;
 -------
 EMISPCT
 -------
 Symbolic Z-matrix:
 Charge =  0 Multiplicity = 1
 6                     0.3271    1.3657    0.10014 
 6                     1.30372   0.36143  -0.10919 
 6                     1.06216  -1.01052   0.0416 
 6                    -0.38816  -1.35726   0.04436 
 6                    -1.28957  -0.41487  -0.04661 
 6                    -1.00534   1.03711  -0.00051 
 1                     0.63102   2.51681   0.16189 
 1                    -1.77722   1.82862  -0.16749 
 1                    -2.38799  -0.6766   -0.24288 
 1                    -0.72914  -2.45558   0.11086 
 1                     1.81616  -1.65652  -0.02074 
 1                     2.31727   0.63735  -0.24881 
 
                          Input orientation:                          
 ---------------------------------------------------------------------
 Center     Atomic      Atomic             Coordinates (Angstroms)
 Number     Number       Type             X           Y           Z
 ---------------------------------------------------------------------
      1          6           0        0.327097    1.365704    0.100141
      2          6           0        1.303722    0.361429   -0.109194
      3          6           0        1.062157   -1.010525    0.041603
      4          6           0       -0.388156   -1.357257    0.044363
      5          6           0       -1.289570   -0.414869   -0.046613
      6          6           0       -1.005343    1.037114   -0.000508
      7          1           0        0.631025    2.516809    0.161887
      8          1           0       -1.777219    1.828619   -0.167490
      9          1           0       -2.387988   -0.676604   -0.242879
     10          1           0       -0.729141   -2.455581    0.110859
     11          1           0        1.816157   -1.656518   -0.020736
     12          1           0        2.317273    0.637351   -0.248805
 ---------------------------------------------------------------------
                    Distance matrix (angstroms):
                    1          2          3          4          5
     1  C    0.000000
     2  C    1.416399   0.000000
     3  C    2.488012   1.401196   0.000000
     4  C    2.815887   2.416592   1.491187   0.000000
     5  C    2.409479   2.707715   2.427593   1.307257   0.000000
     6  C    1.376044   2.408349   2.910181   2.473044   1.480258
     7  H    1.192152   2.274130   3.555618   4.007609   3.510967
     8  H    2.171189   3.412952   4.020760   3.481980   2.299054
     9  H    3.414729   3.837201   3.477921   2.131930   1.146101
    10  H    3.964590   3.480876   2.302549   1.151958   2.122118
    11  H    3.371312   2.083873   0.994842   2.225487   3.344833
    12  H    2.147804   1.059675   2.091686   3.373983   3.762628
                    6          7          8          9         10
     6  C    0.000000
     7  H    2.212141   0.000000
     8  H    1.118103   2.526209   0.000000
     9  H    2.215238   4.413180   2.579702   0.000000
    10  H    3.505369   5.155319   4.419312   2.457980   0.000000
    11  H    3.900888   4.342182   5.008001   4.322548   2.671022
    12  H    3.355777   2.558214   4.265043   4.885284   4.356171
                   11         12
    11  H    0.000000
    12  H    2.359019   0.000000
 Stoichiometry    C6H6
 Framework group  C1[X(C6H6)]
 Deg. of freedom    30
 Full point group                 C1      NOp   1
 Largest Abelian subgroup         C1      NOp   1
 Largest concise Abelian subgroup C1      NOp   1
                         Standard orientation:                         
 ---------------------------------------------------------------------
 Center     Atomic      Atomic             Coordinates (Angstroms)
 Number     Number       Type             X           Y           Z
 ---------------------------------------------------------------------
      1          6           0       -1.274046   -0.587005   -0.105750
      2          6           0       -0.099892   -1.350020    0.107224
      3          6           0        1.199483   -0.847659   -0.043143
      4          6           0        1.258701    0.642337   -0.049800
      5          6           0        0.159421    1.344355    0.037803
      6          6           0       -1.209934    0.784113   -0.008673
      7          1           0       -2.344384   -1.108332   -0.167564
      8          1           0       -2.136198    1.388479    0.155433
      9          1           0        0.203148    2.473189    0.231117
     10          1           0        2.270255    1.189451   -0.116378
     11          1           0        1.979217   -1.462065    0.021899
     12          1           0       -0.174436   -2.397446    0.249530
 ---------------------------------------------------------------------
 Rotational constants (GHZ):           5.7518072           5.3967445           2.8004546
 Standard basis: 6-31G(d,p) (6D, 7F)
 There are   120 symmetry adapted cartesian basis functions of A   symmetry.
 There are   120 symmetry adapted basis functions of A   symmetry.
   120 basis functions,   210 primitive gaussians,   120 cartesian basis functions
    21 alpha electrons       21 beta electrons
       nuclear repulsion energy       201.2500316225 Hartrees.
 NAtoms=   12 NActive=   12 NUniq=   12 SFac= 1.00D+00 NAtFMM=   60 NAOKFM=F Big=F
 Integral buffers will be    131072 words long.
 Regular integral format.
 Two-electron integral symmetry is turned on.
 One-electron integrals computed using PRISM.
 NBasis=   120 RedAO= T EigKep=  7.91D-04  NBF=   120
 NBsUse=   120 1.00D-06 EigRej= -1.00D+00 NBFU=   120
 ExpMin= 1.61D-01 ExpMax= 3.05D+03 ExpMxC= 4.57D+02 IAcc=3 IRadAn=         5 AccDes= 0.00D+00
 Harris functional with IExCor=  402 and IRadAn=       5 diagonalized for initial guess.
 HarFok:  IExCor=  402 AccDes= 0.00D+00 IRadAn=         5 IDoV= 1 UseB2=F ITyADJ=14
 ICtDFT=  3500011 ScaDFX=  1.000000  1.000000  1.000000  1.000000
 FoFCou: FMM=F IPFlag=           0 FMFlag=      100000 FMFlg1=           0
         NFxFlg=           0 DoJE=T BraDBF=F KetDBF=T FulRan=T
         wScrn=  0.000000 ICntrl=       500 IOpCl=  0 I1Cent=   200000004 NGrid=           0
         NMat0=    1 NMatS0=      1 NMatT0=    0 NMatD0=    1 NMtDS0=    0 NMtDT0=    0
 Petite list used in FoFCou.
 Keep R1 ints in memory in canonical form, NReq=30147728.
 Requested convergence on RMS density matrix=1.00D-08 within 128 cycles.
 Requested convergence on MAX density matrix=1.00D-06.
 Requested convergence on             energy=1.00D-06.
 No special actions if energy rises.
 Integral accuracy reduced to 1.0D-05 until final iterations.
 Initial convergence to 1.0D-05 achieved.  Increase integral accuracy.
 SCF Done:  E(RB3LYP) =  -232.212256659     A.U. after   13 cycles
            NFock= 13  Conv=0.67D-08     -V/T= 2.0110
 DoSCS=F DFT=T ScalE2(SS,OS)=  1.000000  1.000000
 ExpMin= 1.61D-01 ExpMax= 3.05D+03 ExpMxC= 4.57D+02 IAcc=3 IRadAn=         5 AccDes= 0.00D+00
 HarFok:  IExCor=  205 AccDes= 0.00D+00 IRadAn=         5 IDoV=-2 UseB2=F ITyADJ=14
 ICtDFT= 12500011 ScaDFX=  1.000000  1.000000  1.000000  1.000000
 Range of M.O.s used for correlation:     7   120
 NBasis=   120 NAE=    21 NBE=    21 NFC=     6 NFV=     0
 NROrb=    114 NOA=    15 NOB=    15 NVA=    99 NVB=    99
 Keep R1, R2, and R3 ints in memory in canonical form, NReq=84032236.
 Orbital symmetries:
       Occupied  (A) (A) (A) (A) (A) (A) (A) (A) (A) (A) (A) (A)
                 (A) (A) (A) (A) (A) (A) (A) (A) (A)
       Virtual   (A) (A) (A) (A) (A) (A) (A) (A) (A) (A) (A) (A)
                 (A) (A) (A) (A) (A) (A) (A) (A) (A) (A) (A) (A)
                 (A) (A) (A) (A) (A) (A) (A) (A) (A) (A) (A) (A)
                 (A) (A) (A) (A) (A) (A) (A) (A) (A) (A) (A) (A)
                 (A) (A) (A) (A) (A) (A) (A) (A) (A) (A) (A) (A)
                 (A) (A) (A) (A) (A) (A) (A) (A) (A) (A) (A) (A)
                 (A) (A) (A) (A) (A) (A) (A) (A) (A) (A) (A) (A)
                 (A) (A) (A) (A) (A) (A) (A) (A) (A) (A) (A) (A)
                 (A) (A) (A)
     4 initial guesses have been made.
 Convergence on wavefunction:    0.001000000000000
 Iteration     1 Dimension     4 NMult     0 NNew      4
 CISAX will form     4 AO SS matrices at one time.
 New state      1 was old state      2
 Iteration     2 Dimension     6 NMult     4 NNew      2
 Iteration     3 Dimension     8 NMult     6 NNew      2
 Iteration     4 Dimension    10 NMult     8 NNew      2
 Iteration     5 Dimension    12 NMult    10 NNew      2
 Iteration     6 Dimension    14 NMult    12 NNew      2
 ***********************************************************************
 Excited states from <AA,BB:AA,BB> singles matrix:
 ***********************************************************************
 
 Ground to excited state transition densities written to RWF  633
 Ground to excited state transition electric dipole moments (Au):
       state          X           Y           Z        Dip. S.      Osc.
         1         0.1568      0.0294     -0.0043      0.0255      0.0033
 Ground to excited state transition velocity dipole moments (Au):
       state          X           Y           Z        Dip. S.      Osc.
         1        -0.0321     -0.0068      0.0010      0.0011      0.0037
 Ground to excited state transition magnetic dipole moments (Au):
       state          X           Y           Z
         1         0.0208      0.0174      0.0199
 Ground to excited state transition velocity quadrupole moments (Au):
       state          XX          YY          ZZ          XY          XZ          YZ
         1        -0.0172     -0.0097      0.0129      0.0071     -0.0261      0.0141
 <0|del|b> * <b|rxdel|0> + <0|del|b> * <b|delr+rdel|0>
 Rotatory Strengths (R) in cgs (10**-40 erg-esu-cm/Gauss)
       state          XX          YY          ZZ    R(velocity)    E-M Angle
         1        -0.4845     -1.9942     -0.2763     -0.9183      133.95
 1/2[<0|r|b>*<b|rxdel|0> + (<0|rxdel|b>*<b|r|0>)*]
 Rotatory Strengths (R) in cgs (10**-40 erg-esu-cm/Gauss)
       state          XX          YY          ZZ     R(length)
         1        -2.3014     -0.3624      0.0598     -0.8680
  1/2[<0|del|b>*<b|r|0> + (<0|r|b>*<b|del|0>)*] (Au)
       state          X           Y           Z        Dip. S.   Osc.(frdel)
         1        -0.0050     -0.0002     -0.0000      0.0052      0.0035

 Excitation energies and oscillator strengths:
 
 Excited State   1:      Singlet-A      5.3527 eV  231.63 nm  f=0.0033  <S**2>=0.000
      20 -> 22         0.50221
      20 -> 23        -0.10633
      21 -> 22        -0.19010
      21 -> 23        -0.44705
 This state for optimization and/or second-order correction.
 Total Energy, E(TD-HF/TD-DFT) =  -232.015547855    
 Copying the excited state density for this state as the 1-particle RhoCI density.
 SavETr:  write IOETrn=   770 NScale= 10 NData=  16 NLR=1 NState=    1 LETran=      28.

 **********************************************************************

            Population analysis using the SCF Density.

 **********************************************************************

 Orbital symmetries:
       Occupied  (A) (A) (A) (A) (A) (A) (A) (A) (A) (A) (A) (A)
                 (A) (A) (A) (A) (A) (A) (A) (A) (A)
       Virtual   (A) (A) (A) (A) (A) (A) (A) (A) (A) (A) (A) (A)
                 (A) (A) (A) (A) (A) (A) (A) (A) (A) (A) (A) (A)
                 (A) (A) (A) (A) (A) (A) (A) (A) (A) (A) (A) (A)
                 (A) (A) (A) (A) (A) (A) (A) (A) (A) (A) (A) (A)
                 (A) (A) (A) (A) (A) (A) (A) (A) (A) (A) (A) (A)
                 (A) (A) (A) (A) (A) (A) (A) (A) (A) (A) (A) (A)
                 (A) (A) (A) (A) (A) (A) (A) (A) (A) (A) (A) (A)
                 (A) (A) (A) (A) (A) (A) (A) (A) (A) (A) (A) (A)
                 (A) (A) (A)
 The electronic state is 1-A.
 Alpha  occ. eigenvalues --  -10.19986 -10.19868 -10.19528 -10.19085 -10.19052
 Alpha  occ. eigenvalues --  -10.18830  -0.84280  -0.74254  -0.73524  -0.60588
 Alpha  occ. eigenvalues --   -0.57844  -0.51149  -0.46235  -0.43642  -0.41271
 Alpha  occ. eigenvalues --   -0.40504  -0.36160  -0.35487  -0.31373  -0.25195
 Alpha  occ. eigenvalues --   -0.23887
 Alpha virt. eigenvalues --   -0.01303   0.00864   0.08020   0.12027   0.14468
 Alpha virt. eigenvalues --    0.14900   0.16753   0.17189   0.19209   0.27272
 Alpha virt. eigenvalues --    0.29127   0.30738   0.33196   0.46812   0.48929
 Alpha virt. eigenvalues --    0.52537   0.54056   0.55377   0.58617   0.58700
 Alpha virt. eigenvalues --    0.59688   0.60293   0.60591   0.63397   0.65281
 Alpha virt. eigenvalues --    0.66325   0.66942   0.73232   0.78175   0.79686
 Alpha virt. eigenvalues --    0.79792   0.83148   0.86462   0.91444   0.92040
 Alpha virt. eigenvalues --    0.93294   0.95355   1.05925   1.07480   1.08786
 Alpha virt. eigenvalues --    1.10992   1.17450   1.21274   1.31141   1.34942
 Alpha virt. eigenvalues --    1.37999   1.40169   1.43867   1.45416   1.52713
 Alpha virt. eigenvalues --    1.68237   1.73339   1.74199   1.81442   1.86711
 Alpha virt. eigenvalues --    1.90725   1.93088   1.94064   1.96284   1.99393
 Alpha virt. eigenvalues --    2.03377   2.05307   2.11165   2.23705   2.28884
 Alpha virt. eigenvalues --    2.30070   2.31790   2.33742   2.36360   2.38664
 Alpha virt. eigenvalues --    2.41398   2.43716   2.43802   2.48169   2.49721
 Alpha virt. eigenvalues --    2.52543   2.55325   2.57253   2.58845   2.66251
 Alpha virt. eigenvalues --    2.74190   2.76139   2.77512   2.96919   3.00265
 Alpha virt. eigenvalues --    3.05796   3.13421   3.16645   3.26039   3.34567
 Alpha virt. eigenvalues --    3.47772   3.54203   3.89020   4.11773   4.16058
 Alpha virt. eigenvalues --    4.17724   4.42809   4.43800   4.76395
          Condensed to atoms (all electrons):
               1          2          3          4          5          6
     1  C    4.844885   0.515011  -0.027702  -0.041161  -0.041152   0.552716
     2  C    0.515011   4.817750   0.566778  -0.033439  -0.036825  -0.040184
     3  C   -0.027702   0.566778   4.835666   0.478863  -0.039070  -0.038113
     4  C   -0.041161  -0.033439   0.478863   4.822316   0.606724  -0.033073
     5  C   -0.041152  -0.036825  -0.039070   0.606724   4.789747   0.498111
     6  C    0.552716  -0.040184  -0.038113  -0.033073   0.498111   4.858500
     7  H    0.354133  -0.035842   0.003271   0.000488   0.004099  -0.038170
     8  H   -0.039699   0.004015   0.000471   0.003604  -0.031947   0.365654
     9  H    0.005007   0.000401   0.004873  -0.041599   0.361535  -0.043182
    10  H    0.000338   0.003897  -0.039688   0.360912  -0.039357   0.004446
    11  H    0.005315  -0.045219   0.381096  -0.040427   0.004408   0.000397
    12  H   -0.045290   0.370922  -0.046885   0.005849   0.000750   0.005577
               7          8          9         10         11         12
     1  C    0.354133  -0.039699   0.005007   0.000338   0.005315  -0.045290
     2  C   -0.035842   0.004015   0.000401   0.003897  -0.045219   0.370922
     3  C    0.003271   0.000471   0.004873  -0.039688   0.381096  -0.046885
     4  C    0.000488   0.003604  -0.041599   0.360912  -0.040427   0.005849
     5  C    0.004099  -0.031947   0.361535  -0.039357   0.004408   0.000750
     6  C   -0.038170   0.365654  -0.043182   0.004446   0.000397   0.005577
     7  H    0.644538  -0.005431  -0.000166   0.000012  -0.000144  -0.005877
     8  H   -0.005431   0.610350  -0.004283  -0.000120   0.000013  -0.000200
     9  H   -0.000166  -0.004283   0.648642  -0.009642  -0.000166   0.000013
    10  H    0.000012  -0.000120  -0.009642   0.638379  -0.003218  -0.000175
    11  H   -0.000144   0.000013  -0.000166  -0.003218   0.619522  -0.008248
    12  H   -0.005877  -0.000200   0.000013  -0.000175  -0.008248   0.641695
 Mulliken charges:
               1
     1  C   -0.082400
     2  C   -0.087268
     3  C   -0.079561
     4  C   -0.089057
     5  C   -0.077023
     6  C   -0.092679
     7  H    0.079089
     8  H    0.097573
     9  H    0.078568
    10  H    0.084218
    11  H    0.086670
    12  H    0.081869
 Sum of Mulliken charges =  -0.00000
 Mulliken charges with hydrogens summed into heavy atoms:
               1
     1  C   -0.003311
     2  C   -0.005399
     3  C    0.007109
     4  C   -0.004839
     5  C    0.001545
     6  C    0.004895
 Electronic spatial extent (au):  <R**2>=            466.1720
 Charge=             -0.0000 electrons
 Dipole moment (field-independent basis, Debye):
    X=             -0.0255    Y=             -0.1022    Z=              0.2382  Tot=              0.2604
 Quadrupole moment (field-independent basis, Debye-Ang):
   XX=            -31.3031   YY=            -31.9533   ZZ=            -38.6522
   XY=             -0.5078   XZ=             -0.2060   YZ=              0.1439
 Traceless Quadrupole moment (field-independent basis, Debye-Ang):
   XX=              2.6664   YY=              2.0162   ZZ=             -4.6827
   XY=             -0.5078   XZ=             -0.2060   YZ=              0.1439
 Octapole moment (field-independent basis, Debye-Ang**2):
  XXX=             -0.3514  YYY=             -1.1048  ZZZ=              0.3785  XYY=              0.7417
  XXY=             -0.0332  XXZ=             -0.0562  XZZ=              0.1894  YZZ=             -0.2485
  YYZ=              2.0572  XYZ=             -0.7807
 Hexadecapole moment (field-independent basis, Debye-Ang**3):
 XXXX=           -282.4964 YYYY=           -273.9045 ZZZZ=            -41.9965 XXXY=             -2.6655
 XXXZ=             -1.1031 YYYX=             -3.1161 YYYZ=              0.4353 ZZZX=             -0.2770
 ZZZY=             -0.0068 XXYY=            -90.2849 XXZZ=            -63.4132 YYZZ=            -60.0021
 XXYZ=              0.8865 YYXZ=             -0.4834 ZZXY=             -0.5126
 N-N= 2.012500316225D+02 E-N=-9.395796059005D+02  KE= 2.296815667582D+02
 1\1\GINC-DESKTOP-PRN5QE3\SP\RB3LYP TD-FC\6-31G(d,p)\C6H6\SHOHEI\10-Nov
 -2023\0\\# TD=(NStates=1) B3LYP/6-31G(d,p)\\EMISPCT\\0,1\C,0,0.3270965
 787,1.3657041443,0.1001412935\C,0,1.3037217989,0.3614290639,-0.1091939
 819\C,0,1.0621566556,-1.0105246662,0.0416025479\C,0,-0.3881564739,-1.3
 572573002,0.0443630208\C,0,-1.289570289,-0.4148685971,-0.0466129528\C,
 0,-1.0053434856,1.0371139899,-0.0005081842\H,0,0.6310248038,2.51680857
 67,0.1618872828\H,0,-1.7772190177,1.8286190297,-0.1674895431\H,0,-2.38
 79883572,-0.6766039233,-0.2428794021\H,0,-0.7291409046,-2.4555812399,0
 .1108585997\H,0,1.8161569083,-1.6565184756,-0.0207363594\H,0,2.3172729
 849,0.637351326,-0.2488050692\\Version=EM64L-G16RevB.01\State=1-A\HF=-
 232.2122567\RMSD=6.743e-09\PG=C01 [X(C6H6)]\\@


 WHAT, THEN, IS TIME?  IF NO ONE ASKS ME, I KNOW WHAT IT IS.
 IF I WISH TO EXPLAIN WHAT IT IS TO HIM WHO ASKS ME, I DO NOT KNOW.
                                   -- ST. AUGUSTINE (FIFTH CENTURY)
 Job cpu time:       0 days  0 hours  3 minutes 38.8 seconds.
 Elapsed time:       0 days  0 hours  0 minutes 55.3 seconds.
 File lengths (MBytes):  RWF=    116 Int=      0 D2E=      0 Chk=      3 Scr=      1
 Normal termination of Gaussian 16 at Fri Nov 10 21:42:29 2023.
