 Entering Gaussian System, Link 0=g16
 Input=Geometry-416-.com
 Output=Geometry-416-.log
 Initial command:
 /home/shohei/gaussian/g16/l1.exe "/home/shohei/gaussian/scratch/Gau-26766.inp" -scrdir="/home/shohei/gaussian/scratch/"
 Entering Link 1 = /home/shohei/gaussian/g16/l1.exe PID=     26768.
  
 Copyright (c) 1988-2017, Gaussian, Inc.  All Rights Reserved.
  
 This is part of the Gaussian(R) 16 program.  It is based on
 the Gaussian(R) 09 system (copyright 2009, Gaussian, Inc.),
 the Gaussian(R) 03 system (copyright 2003, Gaussian, Inc.),
 the Gaussian(R) 98 system (copyright 1998, Gaussian, Inc.),
 the Gaussian(R) 94 system (copyright 1995, Gaussian, Inc.),
 the Gaussian 92(TM) system (copyright 1992, Gaussian, Inc.),
 the Gaussian 90(TM) system (copyright 1990, Gaussian, Inc.),
 the Gaussian 88(TM) system (copyright 1988, Gaussian, Inc.),
 the Gaussian 86(TM) system (copyright 1986, Carnegie Mellon
 University), and the Gaussian 82(TM) system (copyright 1983,
 Carnegie Mellon University). Gaussian is a federally registered
 trademark of Gaussian, Inc.
  
 This software contains proprietary and confidential information,
 including trade secrets, belonging to Gaussian, Inc.
  
 This software is provided under written license and may be
 used, copied, transmitted, or stored only in accord with that
 written license.
  
 The following legend is applicable only to US Government
 contracts under FAR:
  
                    RESTRICTED RIGHTS LEGEND
  
 Use, reproduction and disclosure by the US Government is
 subject to restrictions as set forth in subparagraphs (a)
 and (c) of the Commercial Computer Software - Restricted
 Rights clause in FAR 52.227-19.
  
 Gaussian, Inc.
 340 Quinnipiac St., Bldg. 40, Wallingford CT 06492
  
  
 ---------------------------------------------------------------
 Warning -- This program may not be used in any manner that
 competes with the business of Gaussian, Inc. or will provide
 assistance to any competitor of Gaussian, Inc.  The licensee
 of this program is prohibited from giving any competitor of
 Gaussian, Inc. access to this program.  By using this program,
 the user acknowledges that Gaussian, Inc. is engaged in the
 business of creating and licensing software in the field of
 computational chemistry and represents and warrants to the
 licensee that it is not a competitor of Gaussian, Inc. and that
 it will not use this program in any manner prohibited above.
 ---------------------------------------------------------------
  

 Cite this work as:
 Gaussian 16, Revision B.01,
 M. J. Frisch, G. W. Trucks, H. B. Schlegel, G. E. Scuseria, 
 M. A. Robb, J. R. Cheeseman, G. Scalmani, V. Barone, 
 G. A. Petersson, H. Nakatsuji, X. Li, M. Caricato, A. V. Marenich, 
 J. Bloino, B. G. Janesko, R. Gomperts, B. Mennucci, H. P. Hratchian, 
 J. V. Ortiz, A. F. Izmaylov, J. L. Sonnenberg, D. Williams-Young, 
 F. Ding, F. Lipparini, F. Egidi, J. Goings, B. Peng, A. Petrone, 
 T. Henderson, D. Ranasinghe, V. G. Zakrzewski, J. Gao, N. Rega, 
 G. Zheng, W. Liang, M. Hada, M. Ehara, K. Toyota, R. Fukuda, 
 J. Hasegawa, M. Ishida, T. Nakajima, Y. Honda, O. Kitao, H. Nakai, 
 T. Vreven, K. Throssell, J. A. Montgomery, Jr., J. E. Peralta, 
 F. Ogliaro, M. J. Bearpark, J. J. Heyd, E. N. Brothers, K. N. Kudin, 
 V. N. Staroverov, T. A. Keith, R. Kobayashi, J. Normand, 
 K. Raghavachari, A. P. Rendell, J. C. Burant, S. S. Iyengar, 
 J. Tomasi, M. Cossi, J. M. Millam, M. Klene, C. Adamo, R. Cammi, 
 J. W. Ochterski, R. L. Martin, K. Morokuma, O. Farkas, 
 J. B. Foresman, and D. J. Fox, Gaussian, Inc., Wallingford CT, 2016.
 
 ******************************************
 Gaussian 16:  EM64L-G16RevB.01 20-Dec-2017
                10-Nov-2023 
 ******************************************
 %nproc=4
 Will use up to    4 processors via shared memory.
 %Mem=2Gb
 ---------------------------------
 # TD=(NStates=1) B3LYP/6-31G(d,p)
 ---------------------------------
 1/38=1,172=1/1;
 2/12=2,17=6,18=5,40=1/2;
 3/5=1,6=6,7=101,11=9,25=1,30=1,74=-5/1,2,3,8;
 4//1;
 5/5=2,38=5/2;
 8/6=1,10=2,108=1/1;
 9/41=1,42=1,70=2/14;
 6/7=2,8=2,9=2,10=2/1;
 99/5=1,9=1/99;
 -------
 EMISPCT
 -------
 Symbolic Z-matrix:
 Charge =  0 Multiplicity = 1
 6                     0.31814   1.34553   0.06547 
 6                     1.33523   0.3872   -0.00435 
 6                     1.04734  -1.0332   -0.02224 
 6                    -0.33647  -1.33759   0.05235 
 6                    -1.32764  -0.33758  -0.01698 
 6                    -0.99244   0.96325  -0.06806 
 1                     0.51327   2.40683   0.14297 
 1                    -1.9299    1.76073  -0.04412 
 1                    -2.31724  -0.63717   0.16199 
 1                    -0.80511  -2.34963  -0.0603 
 1                     1.70046  -2.03829  -0.07386 
 1                     2.37066   0.9398   -0.21126 
 
                          Input orientation:                          
 ---------------------------------------------------------------------
 Center     Atomic      Atomic             Coordinates (Angstroms)
 Number     Number       Type             X           Y           Z
 ---------------------------------------------------------------------
      1          6           0        0.318142    1.345528    0.065469
      2          6           0        1.335235    0.387202   -0.004353
      3          6           0        1.047343   -1.033201   -0.022237
      4          6           0       -0.336469   -1.337595    0.052352
      5          6           0       -1.327642   -0.337576   -0.016980
      6          6           0       -0.992441    0.963246   -0.068062
      7          1           0        0.513266    2.406828    0.142970
      8          1           0       -1.929899    1.760734   -0.044123
      9          1           0       -2.317241   -0.637172    0.161991
     10          1           0       -0.805107   -2.349632   -0.060304
     11          1           0        1.700462   -2.038294   -0.073860
     12          1           0        2.370658    0.939803   -0.211262
 ---------------------------------------------------------------------
                    Distance matrix (angstroms):
                    1          2          3          4          5
     1  C    0.000000
     2  C    1.399193   0.000000
     3  C    2.489534   1.449395   0.000000
     4  C    2.761854   2.402651   1.418856   0.000000
     5  C    2.355471   2.759778   2.474768   1.409705   0.000000
     6  C    1.371714   2.398742   2.854579   2.395552   1.344287
     7  H    1.081868   2.185458   3.485159   3.840698   3.308517
     8  H    2.288689   3.542495   4.082955   3.485394   2.183199
     9  H    3.299343   3.797051   3.392817   2.103824   1.049331
    10  H    3.864158   3.474831   2.272886   1.120952   2.079252
    11  H    3.657933   2.453824   1.199767   2.157775   3.473483
    12  H    2.110453   1.191755   2.383199   3.547473   3.917507
                    6          7          8          9         10
     6  C    0.000000
     7  H    2.096573   0.000000
     8  H    1.231011   2.534067   0.000000
     9  H    2.090301   4.156690   2.437718   0.000000
    10  H    3.318180   4.939974   4.261517   2.295318   0.000000
    11  H    4.032493   4.606035   5.254809   4.261538   2.524874
    12  H    3.366228   2.393229   4.381398   4.960097   4.574785
                   11         12
    11  H    0.000000
    12  H    3.055668   0.000000
 Stoichiometry    C6H6
 Framework group  C1[X(C6H6)]
 Deg. of freedom    30
 Full point group                 C1      NOp   1
 Largest Abelian subgroup         C1      NOp   1
 Largest concise Abelian subgroup C1      NOp   1
                         Standard orientation:                         
 ---------------------------------------------------------------------
 Center     Atomic      Atomic             Coordinates (Angstroms)
 Number     Number       Type             X           Y           Z
 ---------------------------------------------------------------------
      1          6           0        1.011713    0.943805   -0.065995
      2          6           0       -0.323826    1.356710   -0.006110
      3          6           0       -1.417860    0.406157    0.010733
      4          6           0       -1.000177   -0.948281   -0.053999
      5          6           0        0.358063   -1.317318    0.025163
      6          6           0        1.324340   -0.384169    0.076652
      7          1           0        1.839375    1.636302   -0.142562
      8          1           0        2.480424   -0.806819    0.061675
      9          1           0        0.586209   -2.326983   -0.146942
     10          1           0       -1.650360   -1.854271    0.059920
     11          1           0       -2.614578    0.479235    0.055086
     12          1           0       -0.354589    2.531115    0.194159
 ---------------------------------------------------------------------
 Rotational constants (GHZ):           5.7890202           5.4760885           2.8220450
 Standard basis: 6-31G(d,p) (6D, 7F)
 There are   120 symmetry adapted cartesian basis functions of A   symmetry.
 There are   120 symmetry adapted basis functions of A   symmetry.
   120 basis functions,   210 primitive gaussians,   120 cartesian basis functions
    21 alpha electrons       21 beta electrons
       nuclear repulsion energy       201.7684174147 Hartrees.
 NAtoms=   12 NActive=   12 NUniq=   12 SFac= 1.00D+00 NAtFMM=   60 NAOKFM=F Big=F
 Integral buffers will be    131072 words long.
 Regular integral format.
 Two-electron integral symmetry is turned on.
 One-electron integrals computed using PRISM.
 NBasis=   120 RedAO= T EigKep=  7.12D-04  NBF=   120
 NBsUse=   120 1.00D-06 EigRej= -1.00D+00 NBFU=   120
 ExpMin= 1.61D-01 ExpMax= 3.05D+03 ExpMxC= 4.57D+02 IAcc=3 IRadAn=         5 AccDes= 0.00D+00
 Harris functional with IExCor=  402 and IRadAn=       5 diagonalized for initial guess.
 HarFok:  IExCor=  402 AccDes= 0.00D+00 IRadAn=         5 IDoV= 1 UseB2=F ITyADJ=14
 ICtDFT=  3500011 ScaDFX=  1.000000  1.000000  1.000000  1.000000
 FoFCou: FMM=F IPFlag=           0 FMFlag=      100000 FMFlg1=           0
         NFxFlg=           0 DoJE=T BraDBF=F KetDBF=T FulRan=T
         wScrn=  0.000000 ICntrl=       500 IOpCl=  0 I1Cent=   200000004 NGrid=           0
         NMat0=    1 NMatS0=      1 NMatT0=    0 NMatD0=    1 NMtDS0=    0 NMtDT0=    0
 Petite list used in FoFCou.
 Keep R1 ints in memory in canonical form, NReq=30147728.
 Requested convergence on RMS density matrix=1.00D-08 within 128 cycles.
 Requested convergence on MAX density matrix=1.00D-06.
 Requested convergence on             energy=1.00D-06.
 No special actions if energy rises.
 Integral accuracy reduced to 1.0D-05 until final iterations.
 Initial convergence to 1.0D-05 achieved.  Increase integral accuracy.
 SCF Done:  E(RB3LYP) =  -232.205369170     A.U. after   13 cycles
            NFock= 13  Conv=0.39D-08     -V/T= 2.0116
 DoSCS=F DFT=T ScalE2(SS,OS)=  1.000000  1.000000
 ExpMin= 1.61D-01 ExpMax= 3.05D+03 ExpMxC= 4.57D+02 IAcc=3 IRadAn=         5 AccDes= 0.00D+00
 HarFok:  IExCor=  205 AccDes= 0.00D+00 IRadAn=         5 IDoV=-2 UseB2=F ITyADJ=14
 ICtDFT= 12500011 ScaDFX=  1.000000  1.000000  1.000000  1.000000
 Range of M.O.s used for correlation:     7   120
 NBasis=   120 NAE=    21 NBE=    21 NFC=     6 NFV=     0
 NROrb=    114 NOA=    15 NOB=    15 NVA=    99 NVB=    99
 Keep R1, R2, and R3 ints in memory in canonical form, NReq=84032236.
 Orbital symmetries:
       Occupied  (A) (A) (A) (A) (A) (A) (A) (A) (A) (A) (A) (A)
                 (A) (A) (A) (A) (A) (A) (A) (A) (A)
       Virtual   (A) (A) (A) (A) (A) (A) (A) (A) (A) (A) (A) (A)
                 (A) (A) (A) (A) (A) (A) (A) (A) (A) (A) (A) (A)
                 (A) (A) (A) (A) (A) (A) (A) (A) (A) (A) (A) (A)
                 (A) (A) (A) (A) (A) (A) (A) (A) (A) (A) (A) (A)
                 (A) (A) (A) (A) (A) (A) (A) (A) (A) (A) (A) (A)
                 (A) (A) (A) (A) (A) (A) (A) (A) (A) (A) (A) (A)
                 (A) (A) (A) (A) (A) (A) (A) (A) (A) (A) (A) (A)
                 (A) (A) (A) (A) (A) (A) (A) (A) (A) (A) (A) (A)
                 (A) (A) (A)
     4 initial guesses have been made.
 Convergence on wavefunction:    0.001000000000000
 Iteration     1 Dimension     4 NMult     0 NNew      4
 CISAX will form     4 AO SS matrices at one time.
 Iteration     2 Dimension     6 NMult     4 NNew      2
 Iteration     3 Dimension     8 NMult     6 NNew      2
 Iteration     4 Dimension    10 NMult     8 NNew      2
 Iteration     5 Dimension    12 NMult    10 NNew      2
 ***********************************************************************
 Excited states from <AA,BB:AA,BB> singles matrix:
 ***********************************************************************
 
 Ground to excited state transition densities written to RWF  633
 Ground to excited state transition electric dipole moments (Au):
       state          X           Y           Z        Dip. S.      Osc.
         1        -0.0435     -0.0992      0.0047      0.0118      0.0016
 Ground to excited state transition velocity dipole moments (Au):
       state          X           Y           Z        Dip. S.      Osc.
         1         0.0096      0.0211     -0.0001      0.0005      0.0018
 Ground to excited state transition magnetic dipole moments (Au):
       state          X           Y           Z
         1        -0.0366     -0.0148      0.0389
 Ground to excited state transition velocity quadrupole moments (Au):
       state          XX          YY          ZZ          XY          XZ          YZ
         1         0.0059      0.0030     -0.0054     -0.0028      0.0090     -0.0167
 <0|del|b> * <b|rxdel|0> + <0|del|b> * <b|delr+rdel|0>
 Rotatory Strengths (R) in cgs (10**-40 erg-esu-cm/Gauss)
       state          XX          YY          ZZ    R(velocity)    E-M Angle
         1        -0.9020     -0.9208     -0.5583     -0.7937      121.34
 1/2[<0|r|b>*<b|rxdel|0> + (<0|rxdel|b>*<b|r|0>)*]
 Rotatory Strengths (R) in cgs (10**-40 erg-esu-cm/Gauss)
       state          XX          YY          ZZ     R(length)
         1        -1.1270     -1.0355     -0.1290     -0.7639
  1/2[<0|del|b>*<b|r|0> + (<0|r|b>*<b|del|0>)*] (Au)
       state          X           Y           Z        Dip. S.   Osc.(frdel)
         1        -0.0004     -0.0021     -0.0000      0.0025      0.0017

 Excitation energies and oscillator strengths:
 
 Excited State   1:      Singlet-A      5.3863 eV  230.18 nm  f=0.0016  <S**2>=0.000
      20 -> 22        -0.31139
      20 -> 23         0.33407
      21 -> 22         0.39868
      21 -> 23         0.36317
 This state for optimization and/or second-order correction.
 Total Energy, E(TD-HF/TD-DFT) =  -232.007425011    
 Copying the excited state density for this state as the 1-particle RhoCI density.
 SavETr:  write IOETrn=   770 NScale= 10 NData=  16 NLR=1 NState=    1 LETran=      28.

 **********************************************************************

            Population analysis using the SCF Density.

 **********************************************************************

 Orbital symmetries:
       Occupied  (A) (A) (A) (A) (A) (A) (A) (A) (A) (A) (A) (A)
                 (A) (A) (A) (A) (A) (A) (A) (A) (A)
       Virtual   (A) (A) (A) (A) (A) (A) (A) (A) (A) (A) (A) (A)
                 (A) (A) (A) (A) (A) (A) (A) (A) (A) (A) (A) (A)
                 (A) (A) (A) (A) (A) (A) (A) (A) (A) (A) (A) (A)
                 (A) (A) (A) (A) (A) (A) (A) (A) (A) (A) (A) (A)
                 (A) (A) (A) (A) (A) (A) (A) (A) (A) (A) (A) (A)
                 (A) (A) (A) (A) (A) (A) (A) (A) (A) (A) (A) (A)
                 (A) (A) (A) (A) (A) (A) (A) (A) (A) (A) (A) (A)
                 (A) (A) (A) (A) (A) (A) (A) (A) (A) (A) (A) (A)
                 (A) (A) (A)
 The electronic state is 1-A.
 Alpha  occ. eigenvalues --  -10.21480 -10.21095 -10.19372 -10.19338 -10.18925
 Alpha  occ. eigenvalues --  -10.17792  -0.85022  -0.74083  -0.73797  -0.59527
 Alpha  occ. eigenvalues --   -0.59189  -0.50935  -0.44505  -0.44091  -0.41049
 Alpha  occ. eigenvalues --   -0.40484  -0.36054  -0.34152  -0.32483  -0.25171
 Alpha  occ. eigenvalues --   -0.24311
 Alpha virt. eigenvalues --   -0.00354  -0.00205   0.06574   0.10624   0.12808
 Alpha virt. eigenvalues --    0.14026   0.15737   0.17937   0.19713   0.27680
 Alpha virt. eigenvalues --    0.29879   0.31444   0.32947   0.46610   0.49854
 Alpha virt. eigenvalues --    0.52461   0.53886   0.55986   0.58739   0.59524
 Alpha virt. eigenvalues --    0.60062   0.61393   0.62226   0.62777   0.64394
 Alpha virt. eigenvalues --    0.66635   0.66852   0.73729   0.75723   0.78372
 Alpha virt. eigenvalues --    0.78940   0.82624   0.83480   0.89782   0.90154
 Alpha virt. eigenvalues --    0.94367   0.96261   1.05742   1.07393   1.09365
 Alpha virt. eigenvalues --    1.12208   1.17272   1.25911   1.26167   1.30674
 Alpha virt. eigenvalues --    1.38353   1.41523   1.44953   1.45902   1.55700
 Alpha virt. eigenvalues --    1.70910   1.72211   1.72660   1.78053   1.82938
 Alpha virt. eigenvalues --    1.87648   1.94152   1.97050   1.98461   2.01069
 Alpha virt. eigenvalues --    2.05944   2.06337   2.11036   2.21291   2.24927
 Alpha virt. eigenvalues --    2.27969   2.29535   2.32546   2.33404   2.37900
 Alpha virt. eigenvalues --    2.39463   2.41645   2.44033   2.45596   2.48071
 Alpha virt. eigenvalues --    2.49662   2.55094   2.55775   2.57324   2.66072
 Alpha virt. eigenvalues --    2.68915   2.70790   2.74690   2.91198   2.97179
 Alpha virt. eigenvalues --    3.06119   3.09614   3.15401   3.21694   3.34352
 Alpha virt. eigenvalues --    3.42734   3.47145   3.82789   4.12021   4.16213
 Alpha virt. eigenvalues --    4.17789   4.43132   4.44488   4.78891
          Condensed to atoms (all electrons):
               1          2          3          4          5          6
     1  C    4.804276   0.535948  -0.036111  -0.037572  -0.046639   0.552615
     2  C    0.535948   4.879189   0.510438  -0.034728  -0.043245  -0.032057
     3  C   -0.036111   0.510438   4.877875   0.523836  -0.037379  -0.039859
     4  C   -0.037572  -0.034728   0.523836   4.854692   0.538759  -0.036172
     5  C   -0.046639  -0.043245  -0.037379   0.538759   4.787778   0.569181
     6  C    0.552615  -0.032057  -0.039859  -0.036172   0.569181   4.785317
     7  H    0.373588  -0.041509   0.004301   0.000211   0.006336  -0.043386
     8  H   -0.035743   0.004416   0.000292   0.005342  -0.039221   0.345261
     9  H    0.005934   0.000513   0.005626  -0.044638   0.372003  -0.042888
    10  H    0.000655   0.003648  -0.036638   0.361191  -0.042206   0.006296
    11  H    0.001908  -0.024880   0.355000  -0.041529   0.003804   0.000429
    12  H   -0.043826   0.353568  -0.030653   0.002954   0.000612   0.004943
               7          8          9         10         11         12
     1  C    0.373588  -0.035743   0.005934   0.000655   0.001908  -0.043826
     2  C   -0.041509   0.004416   0.000513   0.003648  -0.024880   0.353568
     3  C    0.004301   0.000292   0.005626  -0.036638   0.355000  -0.030653
     4  C    0.000211   0.005342  -0.044638   0.361191  -0.041529   0.002954
     5  C    0.006336  -0.039221   0.372003  -0.042206   0.003804   0.000612
     6  C   -0.043386   0.345261  -0.042888   0.006296   0.000429   0.004943
     7  H    0.623095  -0.006108  -0.000278   0.000010  -0.000063  -0.008026
     8  H   -0.006108   0.667267  -0.008299  -0.000228   0.000009  -0.000167
     9  H   -0.000278  -0.008299   0.634819  -0.008777  -0.000210   0.000014
    10  H    0.000010  -0.000228  -0.008777   0.636319  -0.005001  -0.000095
    11  H   -0.000063   0.000009  -0.000210  -0.005001   0.612929  -0.002053
    12  H   -0.008026  -0.000167   0.000014  -0.000095  -0.002053   0.637534
 Mulliken charges:
               1
     1  C   -0.075031
     2  C   -0.111302
     3  C   -0.096728
     4  C   -0.092346
     5  C   -0.069784
     6  C   -0.069678
     7  H    0.091829
     8  H    0.067180
     9  H    0.086183
    10  H    0.084826
    11  H    0.099656
    12  H    0.085196
 Sum of Mulliken charges =  -0.00000
 Mulliken charges with hydrogens summed into heavy atoms:
               1
     1  C    0.016798
     2  C   -0.026106
     3  C    0.002928
     4  C   -0.007520
     5  C    0.016399
     6  C   -0.002498
 Electronic spatial extent (au):  <R**2>=            464.6993
 Charge=             -0.0000 electrons
 Dipole moment (field-independent basis, Debye):
    X=              0.0846    Y=             -0.1733    Z=              0.0460  Tot=              0.1982
 Quadrupole moment (field-independent basis, Debye-Ang):
   XX=            -31.8904   YY=            -31.9652   ZZ=            -38.8095
   XY=              0.7259   XZ=             -0.4602   YZ=              0.3955
 Traceless Quadrupole moment (field-independent basis, Debye-Ang):
   XX=              2.3313   YY=              2.2565   ZZ=             -4.5878
   XY=              0.7259   XZ=             -0.4602   YZ=              0.3955
 Octapole moment (field-independent basis, Debye-Ang**2):
  XXX=             -1.3994  YYY=             -1.4601  ZZZ=             -0.0241  XYY=              1.8373
  XXY=             -0.7230  XXZ=              0.1545  XZZ=              0.4922  YZZ=             -0.3779
  YYZ=              0.3165  XYZ=             -0.0816
 Hexadecapole moment (field-independent basis, Debye-Ang**3):
 XXXX=           -281.5817 YYYY=           -269.2837 ZZZZ=            -41.2348 XXXY=              1.4835
 XXXZ=             -1.9391 YYYX=              5.4664 YYYZ=              3.8303 ZZZX=             -0.4865
 ZZZY=              0.3453 XXYY=            -96.0710 XXZZ=            -64.0990 YYZZ=            -60.3797
 XXYZ=             -0.7501 YYXZ=             -1.8212 ZZXY=              0.5034
 N-N= 2.017684174147D+02 E-N=-9.404703819081D+02  KE= 2.295481102357D+02
 1\1\GINC-DESKTOP-PRN5QE3\SP\RB3LYP TD-FC\6-31G(d,p)\C6H6\SHOHEI\10-Nov
 -2023\0\\# TD=(NStates=1) B3LYP/6-31G(d,p)\\EMISPCT\\0,1\C,0,0.3181418
 892,1.345528291,0.0654692232\C,0,1.335234595,0.3872021356,-0.004352763
 5\C,0,1.0473428744,-1.0332009934,-0.0222374962\C,0,-0.3364685015,-1.33
 7594675,0.0523520541\C,0,-1.3276419397,-0.337576256,-0.0169801716\C,0,
 -0.9924414273,0.9632464114,-0.0680623137\H,0,0.5132659547,2.4068284741
 ,0.1429696324\H,0,-1.9298992571,1.7607342924,-0.0441228693\H,0,-2.3172
 414833,-0.637171651,0.1619913578\H,0,-0.8051072039,-2.3496317824,-0.06
 03035041\H,0,1.7004615362,-2.0382937709,-0.0738596755\H,0,2.3706575768
 ,0.9398033506,-0.2112622161\\Version=EM64L-G16RevB.01\State=1-A\HF=-23
 2.2053692\RMSD=3.872e-09\PG=C01 [X(C6H6)]\\@


 THE SOLUTION TO A PROBLEM CHANGES THE PROBLEM.

                                 -- JOHN PEERS
           PAUL DICKSON'S "THE OFFICIAL RULES"
 Job cpu time:       0 days  0 hours  3 minutes  2.4 seconds.
 Elapsed time:       0 days  0 hours  0 minutes 46.2 seconds.
 File lengths (MBytes):  RWF=    116 Int=      0 D2E=      0 Chk=      3 Scr=      1
 Normal termination of Gaussian 16 at Fri Nov 10 21:52:35 2023.
