 Entering Gaussian System, Link 0=g16
 Input=Geometry-415-.com
 Output=Geometry-415-.log
 Initial command:
 /home/shohei/gaussian/g16/l1.exe "/home/shohei/gaussian/scratch/Gau-26682.inp" -scrdir="/home/shohei/gaussian/scratch/"
 Entering Link 1 = /home/shohei/gaussian/g16/l1.exe PID=     26684.
  
 Copyright (c) 1988-2017, Gaussian, Inc.  All Rights Reserved.
  
 This is part of the Gaussian(R) 16 program.  It is based on
 the Gaussian(R) 09 system (copyright 2009, Gaussian, Inc.),
 the Gaussian(R) 03 system (copyright 2003, Gaussian, Inc.),
 the Gaussian(R) 98 system (copyright 1998, Gaussian, Inc.),
 the Gaussian(R) 94 system (copyright 1995, Gaussian, Inc.),
 the Gaussian 92(TM) system (copyright 1992, Gaussian, Inc.),
 the Gaussian 90(TM) system (copyright 1990, Gaussian, Inc.),
 the Gaussian 88(TM) system (copyright 1988, Gaussian, Inc.),
 the Gaussian 86(TM) system (copyright 1986, Carnegie Mellon
 University), and the Gaussian 82(TM) system (copyright 1983,
 Carnegie Mellon University). Gaussian is a federally registered
 trademark of Gaussian, Inc.
  
 This software contains proprietary and confidential information,
 including trade secrets, belonging to Gaussian, Inc.
  
 This software is provided under written license and may be
 used, copied, transmitted, or stored only in accord with that
 written license.
  
 The following legend is applicable only to US Government
 contracts under FAR:
  
                    RESTRICTED RIGHTS LEGEND
  
 Use, reproduction and disclosure by the US Government is
 subject to restrictions as set forth in subparagraphs (a)
 and (c) of the Commercial Computer Software - Restricted
 Rights clause in FAR 52.227-19.
  
 Gaussian, Inc.
 340 Quinnipiac St., Bldg. 40, Wallingford CT 06492
  
  
 ---------------------------------------------------------------
 Warning -- This program may not be used in any manner that
 competes with the business of Gaussian, Inc. or will provide
 assistance to any competitor of Gaussian, Inc.  The licensee
 of this program is prohibited from giving any competitor of
 Gaussian, Inc. access to this program.  By using this program,
 the user acknowledges that Gaussian, Inc. is engaged in the
 business of creating and licensing software in the field of
 computational chemistry and represents and warrants to the
 licensee that it is not a competitor of Gaussian, Inc. and that
 it will not use this program in any manner prohibited above.
 ---------------------------------------------------------------
  

 Cite this work as:
 Gaussian 16, Revision B.01,
 M. J. Frisch, G. W. Trucks, H. B. Schlegel, G. E. Scuseria, 
 M. A. Robb, J. R. Cheeseman, G. Scalmani, V. Barone, 
 G. A. Petersson, H. Nakatsuji, X. Li, M. Caricato, A. V. Marenich, 
 J. Bloino, B. G. Janesko, R. Gomperts, B. Mennucci, H. P. Hratchian, 
 J. V. Ortiz, A. F. Izmaylov, J. L. Sonnenberg, D. Williams-Young, 
 F. Ding, F. Lipparini, F. Egidi, J. Goings, B. Peng, A. Petrone, 
 T. Henderson, D. Ranasinghe, V. G. Zakrzewski, J. Gao, N. Rega, 
 G. Zheng, W. Liang, M. Hada, M. Ehara, K. Toyota, R. Fukuda, 
 J. Hasegawa, M. Ishida, T. Nakajima, Y. Honda, O. Kitao, H. Nakai, 
 T. Vreven, K. Throssell, J. A. Montgomery, Jr., J. E. Peralta, 
 F. Ogliaro, M. J. Bearpark, J. J. Heyd, E. N. Brothers, K. N. Kudin, 
 V. N. Staroverov, T. A. Keith, R. Kobayashi, J. Normand, 
 K. Raghavachari, A. P. Rendell, J. C. Burant, S. S. Iyengar, 
 J. Tomasi, M. Cossi, J. M. Millam, M. Klene, C. Adamo, R. Cammi, 
 J. W. Ochterski, R. L. Martin, K. Morokuma, O. Farkas, 
 J. B. Foresman, and D. J. Fox, Gaussian, Inc., Wallingford CT, 2016.
 
 ******************************************
 Gaussian 16:  EM64L-G16RevB.01 20-Dec-2017
                10-Nov-2023 
 ******************************************
 %nproc=4
 Will use up to    4 processors via shared memory.
 %Mem=2Gb
 ---------------------------------
 # TD=(NStates=1) B3LYP/6-31G(d,p)
 ---------------------------------
 1/38=1,172=1/1;
 2/12=2,17=6,18=5,40=1/2;
 3/5=1,6=6,7=101,11=9,25=1,30=1,74=-5/1,2,3,8;
 4//1;
 5/5=2,38=5/2;
 8/6=1,10=2,108=1/1;
 9/41=1,42=1,70=2/14;
 6/7=2,8=2,9=2,10=2/1;
 99/5=1,9=1/99;
 -------
 EMISPCT
 -------
 Symbolic Z-matrix:
 Charge =  0 Multiplicity = 1
 6                     0.34427   1.30069  -0.06656 
 6                     1.35131   0.40438   0.10844 
 6                     1.0691   -1.00666  -0.07105 
 6                    -0.39568  -1.35757  -0.04062 
 6                    -1.33602  -0.32757   0.08401 
 6                    -0.99808   0.96003  -0.04629 
 1                     0.47872   2.47348   0.13378 
 1                    -1.87115   1.71915  -0.20082 
 1                    -2.36057  -0.65941   0.30967 
 1                    -0.57888  -2.34273   0.08445 
 1                     1.64345  -1.68279  -0.15897 
 1                     2.33456   0.74672   0.27021 
 
                          Input orientation:                          
 ---------------------------------------------------------------------
 Center     Atomic      Atomic             Coordinates (Angstroms)
 Number     Number       Type             X           Y           Z
 ---------------------------------------------------------------------
      1          6           0        0.344274    1.300693   -0.066558
      2          6           0        1.351309    0.404381    0.108435
      3          6           0        1.069096   -1.006656   -0.071046
      4          6           0       -0.395682   -1.357565   -0.040617
      5          6           0       -1.336022   -0.327568    0.084006
      6          6           0       -0.998076    0.960032   -0.046295
      7          1           0        0.478716    2.473483    0.133782
      8          1           0       -1.871146    1.719155   -0.200823
      9          1           0       -2.360570   -0.659405    0.309672
     10          1           0       -0.578882   -2.342734    0.084454
     11          1           0        1.643447   -1.682785   -0.158967
     12          1           0        2.334559    0.746718    0.270211
 ---------------------------------------------------------------------
                    Distance matrix (angstroms):
                    1          2          3          4          5
     1  C    0.000000
     2  C    1.359455   0.000000
     3  C    2.418522   1.450132   0.000000
     4  C    2.759446   2.485688   1.506531   0.000000
     5  C    2.344632   2.785336   2.503955   1.400237   0.000000
     6  C    1.385050   2.419153   2.853362   2.394612   1.337572
     7  H    1.197350   2.245717   3.535799   3.933435   3.337909
     8  H    2.258588   3.494064   4.011472   3.415972   2.134610
     9  H    3.361505   3.866547   3.468161   2.114454   1.100336
    10  H    3.761593   3.357507   2.127232   1.009833   2.152709
    11  H    3.255385   2.124408   0.891493   2.068289   3.282207
    12  H    2.093212   1.053635   2.189104   3.461045   3.829089
                    6          7          8          9         10
     6  C    0.000000
     7  H    2.122233   0.000000
     8  H    1.167217   2.490546   0.000000
     9  H    2.146085   4.231722   2.481469   0.000000
    10  H    3.331829   4.931216   4.272033   2.461449   0.000000
    11  H    3.738292   4.326300   4.891555   4.159217   2.330994
    12  H    3.354420   2.538599   4.342287   4.901324   4.250571
                   11         12
    11  H    0.000000
    12  H    2.562092   0.000000
 Stoichiometry    C6H6
 Framework group  C1[X(C6H6)]
 Deg. of freedom    30
 Full point group                 C1      NOp   1
 Largest Abelian subgroup         C1      NOp   1
 Largest concise Abelian subgroup C1      NOp   1
                         Standard orientation:                         
 ---------------------------------------------------------------------
 Center     Atomic      Atomic             Coordinates (Angstroms)
 Number     Number       Type             X           Y           Z
 ---------------------------------------------------------------------
      1          6           0       -0.162923    1.334111   -0.075611
      2          6           0        1.106090    0.879721    0.101174
      3          6           0        1.372004   -0.534912   -0.074862
      4          6           0        0.144636   -1.407949   -0.043112
      5          6           0       -1.112674   -0.803937    0.079378
      6          6           0       -1.280568    0.516328   -0.054091
      7          1           0       -0.476829    2.472575    0.121899
      8          1           0       -2.374051    0.893613   -0.210131
      9          1           0       -1.938984   -1.494239    0.306173
     10          1           0        0.342983   -2.389872    0.084359
     11          1           0        2.157543   -0.947471   -0.161369
     12          1           0        1.889946    1.565223    0.261809
 ---------------------------------------------------------------------
 Rotational constants (GHZ):           5.7569624           5.5441780           2.8448274
 Standard basis: 6-31G(d,p) (6D, 7F)
 There are   120 symmetry adapted cartesian basis functions of A   symmetry.
 There are   120 symmetry adapted basis functions of A   symmetry.
   120 basis functions,   210 primitive gaussians,   120 cartesian basis functions
    21 alpha electrons       21 beta electrons
       nuclear repulsion energy       203.1927054136 Hartrees.
 NAtoms=   12 NActive=   12 NUniq=   12 SFac= 1.00D+00 NAtFMM=   60 NAOKFM=F Big=F
 Integral buffers will be    131072 words long.
 Regular integral format.
 Two-electron integral symmetry is turned on.
 One-electron integrals computed using PRISM.
 NBasis=   120 RedAO= T EigKep=  7.45D-04  NBF=   120
 NBsUse=   120 1.00D-06 EigRej= -1.00D+00 NBFU=   120
 ExpMin= 1.61D-01 ExpMax= 3.05D+03 ExpMxC= 4.57D+02 IAcc=3 IRadAn=         5 AccDes= 0.00D+00
 Harris functional with IExCor=  402 and IRadAn=       5 diagonalized for initial guess.
 HarFok:  IExCor=  402 AccDes= 0.00D+00 IRadAn=         5 IDoV= 1 UseB2=F ITyADJ=14
 ICtDFT=  3500011 ScaDFX=  1.000000  1.000000  1.000000  1.000000
 FoFCou: FMM=F IPFlag=           0 FMFlag=      100000 FMFlg1=           0
         NFxFlg=           0 DoJE=T BraDBF=F KetDBF=T FulRan=T
         wScrn=  0.000000 ICntrl=       500 IOpCl=  0 I1Cent=   200000004 NGrid=           0
         NMat0=    1 NMatS0=      1 NMatT0=    0 NMatD0=    1 NMtDS0=    0 NMtDT0=    0
 Petite list used in FoFCou.
 Keep R1 ints in memory in canonical form, NReq=30147728.
 Requested convergence on RMS density matrix=1.00D-08 within 128 cycles.
 Requested convergence on MAX density matrix=1.00D-06.
 Requested convergence on             energy=1.00D-06.
 No special actions if energy rises.
 Integral accuracy reduced to 1.0D-05 until final iterations.
 Initial convergence to 1.0D-05 achieved.  Increase integral accuracy.
 SCF Done:  E(RB3LYP) =  -232.175325681     A.U. after   13 cycles
            NFock= 13  Conv=0.84D-08     -V/T= 2.0088
 DoSCS=F DFT=T ScalE2(SS,OS)=  1.000000  1.000000
 ExpMin= 1.61D-01 ExpMax= 3.05D+03 ExpMxC= 4.57D+02 IAcc=3 IRadAn=         5 AccDes= 0.00D+00
 HarFok:  IExCor=  205 AccDes= 0.00D+00 IRadAn=         5 IDoV=-2 UseB2=F ITyADJ=14
 ICtDFT= 12500011 ScaDFX=  1.000000  1.000000  1.000000  1.000000
 Range of M.O.s used for correlation:     7   120
 NBasis=   120 NAE=    21 NBE=    21 NFC=     6 NFV=     0
 NROrb=    114 NOA=    15 NOB=    15 NVA=    99 NVB=    99
 Keep R1, R2, and R3 ints in memory in canonical form, NReq=84032236.
 Orbital symmetries:
       Occupied  (A) (A) (A) (A) (A) (A) (A) (A) (A) (A) (A) (A)
                 (A) (A) (A) (A) (A) (A) (A) (A) (A)
       Virtual   (A) (A) (A) (A) (A) (A) (A) (A) (A) (A) (A) (A)
                 (A) (A) (A) (A) (A) (A) (A) (A) (A) (A) (A) (A)
                 (A) (A) (A) (A) (A) (A) (A) (A) (A) (A) (A) (A)
                 (A) (A) (A) (A) (A) (A) (A) (A) (A) (A) (A) (A)
                 (A) (A) (A) (A) (A) (A) (A) (A) (A) (A) (A) (A)
                 (A) (A) (A) (A) (A) (A) (A) (A) (A) (A) (A) (A)
                 (A) (A) (A) (A) (A) (A) (A) (A) (A) (A) (A) (A)
                 (A) (A) (A) (A) (A) (A) (A) (A) (A) (A) (A) (A)
                 (A) (A) (A)
     4 initial guesses have been made.
 Convergence on wavefunction:    0.001000000000000
 Iteration     1 Dimension     4 NMult     0 NNew      4
 CISAX will form     4 AO SS matrices at one time.
 New state      1 was old state      2
 Iteration     2 Dimension     6 NMult     4 NNew      2
 Iteration     3 Dimension     8 NMult     6 NNew      2
 Iteration     4 Dimension    10 NMult     8 NNew      2
 Iteration     5 Dimension    12 NMult    10 NNew      2
 ***********************************************************************
 Excited states from <AA,BB:AA,BB> singles matrix:
 ***********************************************************************
 
 Ground to excited state transition densities written to RWF  633
 Ground to excited state transition electric dipole moments (Au):
       state          X           Y           Z        Dip. S.      Osc.
         1         0.0483      0.1063      0.0050      0.0137      0.0018
 Ground to excited state transition velocity dipole moments (Au):
       state          X           Y           Z        Dip. S.      Osc.
         1        -0.0092     -0.0197     -0.0009      0.0005      0.0016
 Ground to excited state transition magnetic dipole moments (Au):
       state          X           Y           Z
         1        -0.0362     -0.0101      0.0077
 Ground to excited state transition velocity quadrupole moments (Au):
       state          XX          YY          ZZ          XY          XZ          YZ
         1        -0.0110      0.0001      0.0022      0.0103      0.0106     -0.0356
 <0|del|b> * <b|rxdel|0> + <0|del|b> * <b|delr+rdel|0>
 Rotatory Strengths (R) in cgs (10**-40 erg-esu-cm/Gauss)
       state          XX          YY          ZZ    R(velocity)    E-M Angle
         1         0.7148      1.2127     -0.0058      0.6406       51.04
 1/2[<0|r|b>*<b|rxdel|0> + (<0|rxdel|b>*<b|r|0>)*]
 Rotatory Strengths (R) in cgs (10**-40 erg-esu-cm/Gauss)
       state          XX          YY          ZZ     R(length)
         1         1.2368      0.7610     -0.0275      0.6568
  1/2[<0|del|b>*<b|r|0> + (<0|r|b>*<b|del|0>)*] (Au)
       state          X           Y           Z        Dip. S.   Osc.(frdel)
         1        -0.0004     -0.0021     -0.0000      0.0025      0.0017

 Excitation energies and oscillator strengths:
 
 Excited State   1:      Singlet-A      5.2646 eV  235.51 nm  f=0.0018  <S**2>=0.000
      20 -> 22         0.51815
      21 -> 22        -0.13981
      21 -> 23         0.45343
 This state for optimization and/or second-order correction.
 Total Energy, E(TD-HF/TD-DFT) =  -231.981855852    
 Copying the excited state density for this state as the 1-particle RhoCI density.
 SavETr:  write IOETrn=   770 NScale= 10 NData=  16 NLR=1 NState=    1 LETran=      28.

 **********************************************************************

            Population analysis using the SCF Density.

 **********************************************************************

 Orbital symmetries:
       Occupied  (A) (A) (A) (A) (A) (A) (A) (A) (A) (A) (A) (A)
                 (A) (A) (A) (A) (A) (A) (A) (A) (A)
       Virtual   (A) (A) (A) (A) (A) (A) (A) (A) (A) (A) (A) (A)
                 (A) (A) (A) (A) (A) (A) (A) (A) (A) (A) (A) (A)
                 (A) (A) (A) (A) (A) (A) (A) (A) (A) (A) (A) (A)
                 (A) (A) (A) (A) (A) (A) (A) (A) (A) (A) (A) (A)
                 (A) (A) (A) (A) (A) (A) (A) (A) (A) (A) (A) (A)
                 (A) (A) (A) (A) (A) (A) (A) (A) (A) (A) (A) (A)
                 (A) (A) (A) (A) (A) (A) (A) (A) (A) (A) (A) (A)
                 (A) (A) (A) (A) (A) (A) (A) (A) (A) (A) (A) (A)
                 (A) (A) (A)
 The electronic state is 1-A.
 Alpha  occ. eigenvalues --  -10.19309 -10.19034 -10.18984 -10.18781 -10.18538
 Alpha  occ. eigenvalues --  -10.18331  -0.84731  -0.74719  -0.73700  -0.61500
 Alpha  occ. eigenvalues --   -0.59545  -0.51895  -0.47280  -0.44186  -0.42515
 Alpha  occ. eigenvalues --   -0.40106  -0.37017  -0.33690  -0.32293  -0.25021
 Alpha  occ. eigenvalues --   -0.23815
 Alpha virt. eigenvalues --   -0.01419   0.00582   0.08151   0.13760   0.14520
 Alpha virt. eigenvalues --    0.15965   0.17510   0.18111   0.20414   0.27592
 Alpha virt. eigenvalues --    0.29868   0.30822   0.33603   0.46556   0.50632
 Alpha virt. eigenvalues --    0.52684   0.53370   0.54828   0.58385   0.59242
 Alpha virt. eigenvalues --    0.59870   0.61103   0.62004   0.63845   0.64840
 Alpha virt. eigenvalues --    0.66570   0.67062   0.73519   0.77385   0.80156
 Alpha virt. eigenvalues --    0.83403   0.85788   0.88558   0.91303   0.93689
 Alpha virt. eigenvalues --    0.96916   0.99258   1.05336   1.07320   1.08631
 Alpha virt. eigenvalues --    1.10678   1.12426   1.21105   1.30225   1.34557
 Alpha virt. eigenvalues --    1.40001   1.41141   1.41746   1.48071   1.58923
 Alpha virt. eigenvalues --    1.71426   1.72724   1.73472   1.79569   1.90621
 Alpha virt. eigenvalues --    1.92351   1.95659   1.98123   1.98886   2.01989
 Alpha virt. eigenvalues --    2.05498   2.07477   2.09007   2.21530   2.29000
 Alpha virt. eigenvalues --    2.30640   2.33276   2.36696   2.38481   2.43393
 Alpha virt. eigenvalues --    2.44817   2.45425   2.46419   2.51599   2.52803
 Alpha virt. eigenvalues --    2.56260   2.57181   2.59085   2.65923   2.67934
 Alpha virt. eigenvalues --    2.79529   2.82762   2.84157   2.97750   3.07205
 Alpha virt. eigenvalues --    3.11162   3.18478   3.23836   3.38878   3.43789
 Alpha virt. eigenvalues --    3.57784   3.77336   4.10831   4.15710   4.17768
 Alpha virt. eigenvalues --    4.18145   4.43548   4.45515   4.79764
          Condensed to atoms (all electrons):
               1          2          3          4          5          6
     1  C    4.842273   0.549716  -0.019183  -0.051196  -0.039626   0.517464
     2  C    0.549716   4.820330   0.514676  -0.022041  -0.037141  -0.039468
     3  C   -0.019183   0.514676   4.816621   0.506382  -0.027634  -0.044351
     4  C   -0.051196  -0.022041   0.506382   4.864077   0.545561  -0.031465
     5  C   -0.039626  -0.037141  -0.027634   0.545561   4.768395   0.563397
     6  C    0.517464  -0.039468  -0.044351  -0.031465   0.563397   4.827128
     7  H    0.353216  -0.037282   0.003769   0.000547   0.005315  -0.041255
     8  H   -0.034455   0.004090   0.000329   0.004486  -0.041472   0.360487
     9  H    0.006662   0.000409   0.005005  -0.048575   0.366635  -0.044351
    10  H    0.000347   0.005078  -0.046484   0.376213  -0.043554   0.006232
    11  H    0.005883  -0.053176   0.384407  -0.049757   0.006877   0.000629
    12  H   -0.043838   0.375971  -0.047342   0.004774   0.000488   0.005627
               7          8          9         10         11         12
     1  C    0.353216  -0.034455   0.006662   0.000347   0.005883  -0.043838
     2  C   -0.037282   0.004090   0.000409   0.005078  -0.053176   0.375971
     3  C    0.003769   0.000329   0.005005  -0.046484   0.384407  -0.047342
     4  C    0.000547   0.004486  -0.048575   0.376213  -0.049757   0.004774
     5  C    0.005315  -0.041472   0.366635  -0.043554   0.006877   0.000488
     6  C   -0.041255   0.360487  -0.044351   0.006232   0.000629   0.005627
     7  H    0.656898  -0.007174  -0.000250   0.000012  -0.000175  -0.006926
     8  H   -0.007174   0.634728  -0.007555  -0.000201   0.000018  -0.000150
     9  H   -0.000250  -0.007555   0.648005  -0.006943  -0.000250   0.000019
    10  H    0.000012  -0.000201  -0.006943   0.633305  -0.007795  -0.000187
    11  H   -0.000175   0.000018  -0.000250  -0.007795   0.671183  -0.005383
    12  H   -0.006926  -0.000150   0.000019  -0.000187  -0.005383   0.628888
 Mulliken charges:
               1
     1  C   -0.087263
     2  C   -0.081161
     3  C   -0.046196
     4  C   -0.099006
     5  C   -0.067240
     6  C   -0.080074
     7  H    0.073305
     8  H    0.086870
     9  H    0.081189
    10  H    0.083977
    11  H    0.047539
    12  H    0.088059
 Sum of Mulliken charges =  -0.00000
 Mulliken charges with hydrogens summed into heavy atoms:
               1
     1  C   -0.013957
     2  C    0.006898
     3  C    0.001343
     4  C   -0.015029
     5  C    0.013949
     6  C    0.006796
 Electronic spatial extent (au):  <R**2>=            458.4098
 Charge=             -0.0000 electrons
 Dipole moment (field-independent basis, Debye):
    X=              0.0924    Y=             -0.2114    Z=              0.2496  Tot=              0.3399
 Quadrupole moment (field-independent basis, Debye-Ang):
   XX=            -31.3228   YY=            -31.9754   ZZ=            -38.2796
   XY=             -0.3577   XZ=              0.0197   YZ=              0.0603
 Traceless Quadrupole moment (field-independent basis, Debye-Ang):
   XX=              2.5365   YY=              1.8839   ZZ=             -4.4203
   XY=             -0.3577   XZ=              0.0197   YZ=              0.0603
 Octapole moment (field-independent basis, Debye-Ang**2):
  XXX=              1.0845  YYY=             -2.7314  ZZZ=              0.3358  XYY=              1.0853
  XXY=             -0.3571  XXZ=              0.0776  XZZ=              0.3022  YZZ=             -0.3997
  YYZ=              1.9486  XYZ=              1.4564
 Hexadecapole moment (field-independent basis, Debye-Ang**3):
 XXXX=           -272.7954 YYYY=           -272.2198 ZZZZ=            -41.9841 XXXY=             -1.7569
 XXXZ=              0.5449 YYYX=             -2.0386 YYYZ=              0.8097 ZZZX=             -0.1585
 ZZZY=              0.0621 XXYY=            -89.5472 XXZZ=            -59.9475 YYZZ=            -59.7363
 XXYZ=             -0.2363 YYXZ=             -0.2665 ZZXY=              0.1076
 N-N= 2.031927054136D+02 E-N=-9.437409275532D+02  KE= 2.301596358996D+02
 1\1\GINC-DESKTOP-PRN5QE3\SP\RB3LYP TD-FC\6-31G(d,p)\C6H6\SHOHEI\10-Nov
 -2023\0\\# TD=(NStates=1) B3LYP/6-31G(d,p)\\EMISPCT\\0,1\C,0,0.3442741
 394,1.3006927409,-0.066557598\C,0,1.3513092946,0.4043807655,0.10843509
 48\C,0,1.069095608,-1.0066564275,-0.0710459314\C,0,-0.3956816754,-1.35
 75650713,-0.040616571\C,0,-1.3360219062,-0.3275681208,0.0840058383\C,0
 ,-0.9980762809,0.9600322123,-0.0462945199\H,0,0.4787155212,2.473482864
 ,0.1337821751\H,0,-1.8711455174,1.7191547957,-0.2008227693\H,0,-2.3605
 703057,-0.6594050834,0.3096717889\H,0,-0.5788821002,-2.3427340283,0.08
 44541347\H,0,1.6434469241,-1.6827854679,-0.1589667491\H,0,2.3345588439
 ,0.7467179977,0.2702111472\\Version=EM64L-G16RevB.01\State=1-A\HF=-232
 .1753257\RMSD=8.388e-09\PG=C01 [X(C6H6)]\\@


 IT IS THE BEHAVIOR AND DISTRIBUTION OF THE ELECTRONS 
 AROUND THE NUCLEUS THAT GIVES THE FUNDAMENTAL 
 CHARACTER OF AN ATOM:  IT MUST BE THE SAME FOR MOLECULES.

                               -- C. A. COULSON, 1951
 Job cpu time:       0 days  0 hours  3 minutes  6.8 seconds.
 Elapsed time:       0 days  0 hours  0 minutes 47.4 seconds.
 File lengths (MBytes):  RWF=    116 Int=      0 D2E=      0 Chk=      3 Scr=      1
 Normal termination of Gaussian 16 at Fri Nov 10 21:51:48 2023.
