 Entering Gaussian System, Link 0=g16
 Input=Geometry-213-.com
 Output=Geometry-213-.log
 Initial command:
 /home/shohei/gaussian/g16/l1.exe "/home/shohei/gaussian/scratch/Gau-30525.inp" -scrdir="/home/shohei/gaussian/scratch/"
 Entering Link 1 = /home/shohei/gaussian/g16/l1.exe PID=     30527.
  
 Copyright (c) 1988-2017, Gaussian, Inc.  All Rights Reserved.
  
 This is part of the Gaussian(R) 16 program.  It is based on
 the Gaussian(R) 09 system (copyright 2009, Gaussian, Inc.),
 the Gaussian(R) 03 system (copyright 2003, Gaussian, Inc.),
 the Gaussian(R) 98 system (copyright 1998, Gaussian, Inc.),
 the Gaussian(R) 94 system (copyright 1995, Gaussian, Inc.),
 the Gaussian 92(TM) system (copyright 1992, Gaussian, Inc.),
 the Gaussian 90(TM) system (copyright 1990, Gaussian, Inc.),
 the Gaussian 88(TM) system (copyright 1988, Gaussian, Inc.),
 the Gaussian 86(TM) system (copyright 1986, Carnegie Mellon
 University), and the Gaussian 82(TM) system (copyright 1983,
 Carnegie Mellon University). Gaussian is a federally registered
 trademark of Gaussian, Inc.
  
 This software contains proprietary and confidential information,
 including trade secrets, belonging to Gaussian, Inc.
  
 This software is provided under written license and may be
 used, copied, transmitted, or stored only in accord with that
 written license.
  
 The following legend is applicable only to US Government
 contracts under FAR:
  
                    RESTRICTED RIGHTS LEGEND
  
 Use, reproduction and disclosure by the US Government is
 subject to restrictions as set forth in subparagraphs (a)
 and (c) of the Commercial Computer Software - Restricted
 Rights clause in FAR 52.227-19.
  
 Gaussian, Inc.
 340 Quinnipiac St., Bldg. 40, Wallingford CT 06492
  
  
 ---------------------------------------------------------------
 Warning -- This program may not be used in any manner that
 competes with the business of Gaussian, Inc. or will provide
 assistance to any competitor of Gaussian, Inc.  The licensee
 of this program is prohibited from giving any competitor of
 Gaussian, Inc. access to this program.  By using this program,
 the user acknowledges that Gaussian, Inc. is engaged in the
 business of creating and licensing software in the field of
 computational chemistry and represents and warrants to the
 licensee that it is not a competitor of Gaussian, Inc. and that
 it will not use this program in any manner prohibited above.
 ---------------------------------------------------------------
  

 Cite this work as:
 Gaussian 16, Revision B.01,
 M. J. Frisch, G. W. Trucks, H. B. Schlegel, G. E. Scuseria, 
 M. A. Robb, J. R. Cheeseman, G. Scalmani, V. Barone, 
 G. A. Petersson, H. Nakatsuji, X. Li, M. Caricato, A. V. Marenich, 
 J. Bloino, B. G. Janesko, R. Gomperts, B. Mennucci, H. P. Hratchian, 
 J. V. Ortiz, A. F. Izmaylov, J. L. Sonnenberg, D. Williams-Young, 
 F. Ding, F. Lipparini, F. Egidi, J. Goings, B. Peng, A. Petrone, 
 T. Henderson, D. Ranasinghe, V. G. Zakrzewski, J. Gao, N. Rega, 
 G. Zheng, W. Liang, M. Hada, M. Ehara, K. Toyota, R. Fukuda, 
 J. Hasegawa, M. Ishida, T. Nakajima, Y. Honda, O. Kitao, H. Nakai, 
 T. Vreven, K. Throssell, J. A. Montgomery, Jr., J. E. Peralta, 
 F. Ogliaro, M. J. Bearpark, J. J. Heyd, E. N. Brothers, K. N. Kudin, 
 V. N. Staroverov, T. A. Keith, R. Kobayashi, J. Normand, 
 K. Raghavachari, A. P. Rendell, J. C. Burant, S. S. Iyengar, 
 J. Tomasi, M. Cossi, J. M. Millam, M. Klene, C. Adamo, R. Cammi, 
 J. W. Ochterski, R. L. Martin, K. Morokuma, O. Farkas, 
 J. B. Foresman, and D. J. Fox, Gaussian, Inc., Wallingford CT, 2016.
 
 ******************************************
 Gaussian 16:  EM64L-G16RevB.01 20-Dec-2017
                10-Nov-2023 
 ******************************************
 %nproc=4
 Will use up to    4 processors via shared memory.
 %Mem=2Gb
 ---------------------------------
 # TD=(NStates=1) B3LYP/6-31G(d,p)
 ---------------------------------
 1/38=1,172=1/1;
 2/12=2,17=6,18=5,40=1/2;
 3/5=1,6=6,7=101,11=9,25=1,30=1,74=-5/1,2,3,8;
 4//1;
 5/5=2,38=5/2;
 8/6=1,10=2,108=1/1;
 9/41=1,42=1,70=2/14;
 6/7=2,8=2,9=2,10=2/1;
 99/5=1,9=1/99;
 -------
 EMISPCT
 -------
 Symbolic Z-matrix:
 Charge =  0 Multiplicity = 1
 6                     0.38671   1.40007  -0.01462 
 6                     1.36165   0.40752   0.05332 
 6                     1.02803  -0.9807   -0.04895 
 6                    -0.39712  -1.3819   -0.03352 
 6                    -1.36181  -0.39857   0.12104 
 6                    -1.03      0.99735  -0.08829 
 1                     0.71866   2.4282    0.21045 
 1                    -1.81422   1.45886  -0.11423 
 1                    -2.28603  -0.7862    0.00734 
 1                    -0.84646  -2.45088  -0.04669 
 1                     1.8596   -1.76042   0.02405 
 1                     2.52743   0.6257    0.06955 
 
                          Input orientation:                          
 ---------------------------------------------------------------------
 Center     Atomic      Atomic             Coordinates (Angstroms)
 Number     Number       Type             X           Y           Z
 ---------------------------------------------------------------------
      1          6           0        0.386708    1.400073   -0.014624
      2          6           0        1.361648    0.407517    0.053321
      3          6           0        1.028026   -0.980700   -0.048948
      4          6           0       -0.397117   -1.381896   -0.033517
      5          6           0       -1.361812   -0.398569    0.121043
      6          6           0       -1.030001    0.997349   -0.088286
      7          1           0        0.718658    2.428197    0.210451
      8          1           0       -1.814224    1.458863   -0.114228
      9          1           0       -2.286034   -0.786198    0.007340
     10          1           0       -0.846463   -2.450879   -0.046689
     11          1           0        1.859597   -1.760421    0.024047
     12          1           0        2.527432    0.625697    0.069549
 ---------------------------------------------------------------------
                    Distance matrix (angstroms):
                    1          2          3          4          5
     1  C    0.000000
     2  C    1.392944   0.000000
     3  C    2.465876   1.431401   0.000000
     4  C    2.890344   2.510537   1.480618   0.000000
     5  C    2.512138   2.841056   2.465583   1.386167   0.000000
     6  C    1.474678   2.467375   2.854768   2.462590   1.450001
     7  H    1.103581   2.126329   3.432722   3.977598   3.510976
     8  H    2.203969   3.349562   3.746214   3.175629   1.926157
     9  H    3.453087   3.838314   3.320240   1.981044   1.008648
    10  H    4.043707   3.613334   2.382255   1.159659   2.122662
    11  H    3.487064   2.224582   1.142280   2.288963   3.498789
    12  H    2.278035   1.186135   2.200629   3.548808   4.022187
                    6          7          8          9         10
     6  C    0.000000
     7  H    2.279118   0.000000
     8  H    0.910316   2.731395   0.000000
     9  H    2.183530   4.404744   2.297321   0.000000
    10  H    3.453359   5.130410   4.028300   2.201465   0.000000
    11  H    3.995959   4.345229   4.886704   4.258597   2.793653
    12  H    3.580274   2.557445   4.424694   5.016650   4.567493
                   11         12
    11  H    0.000000
    12  H    2.478231   0.000000
 Stoichiometry    C6H6
 Framework group  C1[X(C6H6)]
 Deg. of freedom    30
 Full point group                 C1      NOp   1
 Largest Abelian subgroup         C1      NOp   1
 Largest concise Abelian subgroup C1      NOp   1
                         Standard orientation:                         
 ---------------------------------------------------------------------
 Center     Atomic      Atomic             Coordinates (Angstroms)
 Number     Number       Type             X           Y           Z
 ---------------------------------------------------------------------
      1          6           0       -1.144003   -0.902222   -0.023956
      2          6           0       -1.339391    0.475380    0.041837
      3          6           0       -0.245859    1.394082   -0.053469
      4          6           0        1.138866    0.870510   -0.028222
      5          6           0        1.329965   -0.493451    0.128457
      6          6           0        0.235455   -1.419608   -0.087844
      7          1           0       -2.023185   -1.532132    0.195460
      8          1           0        0.592487   -2.256671   -0.110842
      9          1           0        2.304513   -0.730527    0.021582
     10          1           0        2.135306    1.463698   -0.034905
     11          1           0       -0.452333    2.515306    0.017449
     12          1           0       -2.406983    0.992188    0.050432
 ---------------------------------------------------------------------
 Rotational constants (GHZ):           5.6178746           5.2469834           2.7251530
 Standard basis: 6-31G(d,p) (6D, 7F)
 There are   120 symmetry adapted cartesian basis functions of A   symmetry.
 There are   120 symmetry adapted basis functions of A   symmetry.
   120 basis functions,   210 primitive gaussians,   120 cartesian basis functions
    21 alpha electrons       21 beta electrons
       nuclear repulsion energy       199.1370649227 Hartrees.
 NAtoms=   12 NActive=   12 NUniq=   12 SFac= 1.00D+00 NAtFMM=   60 NAOKFM=F Big=F
 Integral buffers will be    131072 words long.
 Regular integral format.
 Two-electron integral symmetry is turned on.
 One-electron integrals computed using PRISM.
 NBasis=   120 RedAO= T EigKep=  1.04D-03  NBF=   120
 NBsUse=   120 1.00D-06 EigRej= -1.00D+00 NBFU=   120
 ExpMin= 1.61D-01 ExpMax= 3.05D+03 ExpMxC= 4.57D+02 IAcc=3 IRadAn=         5 AccDes= 0.00D+00
 Harris functional with IExCor=  402 and IRadAn=       5 diagonalized for initial guess.
 HarFok:  IExCor=  402 AccDes= 0.00D+00 IRadAn=         5 IDoV= 1 UseB2=F ITyADJ=14
 ICtDFT=  3500011 ScaDFX=  1.000000  1.000000  1.000000  1.000000
 FoFCou: FMM=F IPFlag=           0 FMFlag=      100000 FMFlg1=           0
         NFxFlg=           0 DoJE=T BraDBF=F KetDBF=T FulRan=T
         wScrn=  0.000000 ICntrl=       500 IOpCl=  0 I1Cent=   200000004 NGrid=           0
         NMat0=    1 NMatS0=      1 NMatT0=    0 NMatD0=    1 NMtDS0=    0 NMtDT0=    0
 Petite list used in FoFCou.
 Keep R1 ints in memory in canonical form, NReq=30147728.
 Requested convergence on RMS density matrix=1.00D-08 within 128 cycles.
 Requested convergence on MAX density matrix=1.00D-06.
 Requested convergence on             energy=1.00D-06.
 No special actions if energy rises.
 Integral accuracy reduced to 1.0D-05 until final iterations.
 Initial convergence to 1.0D-05 achieved.  Increase integral accuracy.
 SCF Done:  E(RB3LYP) =  -232.177635051     A.U. after   13 cycles
            NFock= 13  Conv=0.88D-08     -V/T= 2.0113
 DoSCS=F DFT=T ScalE2(SS,OS)=  1.000000  1.000000
 ExpMin= 1.61D-01 ExpMax= 3.05D+03 ExpMxC= 4.57D+02 IAcc=3 IRadAn=         5 AccDes= 0.00D+00
 HarFok:  IExCor=  205 AccDes= 0.00D+00 IRadAn=         5 IDoV=-2 UseB2=F ITyADJ=14
 ICtDFT= 12500011 ScaDFX=  1.000000  1.000000  1.000000  1.000000
 Range of M.O.s used for correlation:     7   120
 NBasis=   120 NAE=    21 NBE=    21 NFC=     6 NFV=     0
 NROrb=    114 NOA=    15 NOB=    15 NVA=    99 NVB=    99
 Keep R1, R2, and R3 ints in memory in canonical form, NReq=84032236.
 Orbital symmetries:
       Occupied  (A) (A) (A) (A) (A) (A) (A) (A) (A) (A) (A) (A)
                 (A) (A) (A) (A) (A) (A) (A) (A) (A)
       Virtual   (A) (A) (A) (A) (A) (A) (A) (A) (A) (A) (A) (A)
                 (A) (A) (A) (A) (A) (A) (A) (A) (A) (A) (A) (A)
                 (A) (A) (A) (A) (A) (A) (A) (A) (A) (A) (A) (A)
                 (A) (A) (A) (A) (A) (A) (A) (A) (A) (A) (A) (A)
                 (A) (A) (A) (A) (A) (A) (A) (A) (A) (A) (A) (A)
                 (A) (A) (A) (A) (A) (A) (A) (A) (A) (A) (A) (A)
                 (A) (A) (A) (A) (A) (A) (A) (A) (A) (A) (A) (A)
                 (A) (A) (A) (A) (A) (A) (A) (A) (A) (A) (A) (A)
                 (A) (A) (A)
     4 initial guesses have been made.
 Convergence on wavefunction:    0.001000000000000
 Iteration     1 Dimension     4 NMult     0 NNew      4
 CISAX will form     4 AO SS matrices at one time.
 New state      1 was old state      3
 Iteration     2 Dimension     6 NMult     4 NNew      2
 Iteration     3 Dimension     8 NMult     6 NNew      2
 Iteration     4 Dimension    10 NMult     8 NNew      2
 Iteration     5 Dimension    12 NMult    10 NNew      2
 ***********************************************************************
 Excited states from <AA,BB:AA,BB> singles matrix:
 ***********************************************************************
 
 Ground to excited state transition densities written to RWF  633
 Ground to excited state transition electric dipole moments (Au):
       state          X           Y           Z        Dip. S.      Osc.
         1        -0.0109      0.0215     -0.0066      0.0006      0.0001
 Ground to excited state transition velocity dipole moments (Au):
       state          X           Y           Z        Dip. S.      Osc.
         1         0.0012     -0.0050      0.0016      0.0000      0.0001
 Ground to excited state transition magnetic dipole moments (Au):
       state          X           Y           Z
         1        -0.0193     -0.0036      0.0261
 Ground to excited state transition velocity quadrupole moments (Au):
       state          XX          YY          ZZ          XY          XZ          YZ
         1         0.0058     -0.0040     -0.0016     -0.0025      0.0172      0.0075
 <0|del|b> * <b|rxdel|0> + <0|del|b> * <b|delr+rdel|0>
 Rotatory Strengths (R) in cgs (10**-40 erg-esu-cm/Gauss)
       state          XX          YY          ZZ    R(velocity)    E-M Angle
         1         0.2684      0.0597     -0.1881      0.0467       90.00
 1/2[<0|r|b>*<b|rxdel|0> + (<0|rxdel|b>*<b|r|0>)*]
 Rotatory Strengths (R) in cgs (10**-40 erg-esu-cm/Gauss)
       state          XX          YY          ZZ     R(length)
         1        -0.1494      0.0546      0.1215      0.0089
  1/2[<0|del|b>*<b|r|0> + (<0|r|b>*<b|del|0>)*] (Au)
       state          X           Y           Z        Dip. S.   Osc.(frdel)
         1        -0.0000     -0.0001     -0.0000      0.0001      0.0001

 Excitation energies and oscillator strengths:
 
 Excited State   1:      Singlet-A      5.0778 eV  244.17 nm  f=0.0001  <S**2>=0.000
      20 -> 22         0.49674
      21 -> 23         0.50174
 This state for optimization and/or second-order correction.
 Total Energy, E(TD-HF/TD-DFT) =  -231.991030769    
 Copying the excited state density for this state as the 1-particle RhoCI density.
 SavETr:  write IOETrn=   770 NScale= 10 NData=  16 NLR=1 NState=    1 LETran=      28.

 **********************************************************************

            Population analysis using the SCF Density.

 **********************************************************************

 Orbital symmetries:
       Occupied  (A) (A) (A) (A) (A) (A) (A) (A) (A) (A) (A) (A)
                 (A) (A) (A) (A) (A) (A) (A) (A) (A)
       Virtual   (A) (A) (A) (A) (A) (A) (A) (A) (A) (A) (A) (A)
                 (A) (A) (A) (A) (A) (A) (A) (A) (A) (A) (A) (A)
                 (A) (A) (A) (A) (A) (A) (A) (A) (A) (A) (A) (A)
                 (A) (A) (A) (A) (A) (A) (A) (A) (A) (A) (A) (A)
                 (A) (A) (A) (A) (A) (A) (A) (A) (A) (A) (A) (A)
                 (A) (A) (A) (A) (A) (A) (A) (A) (A) (A) (A) (A)
                 (A) (A) (A) (A) (A) (A) (A) (A) (A) (A) (A) (A)
                 (A) (A) (A) (A) (A) (A) (A) (A) (A) (A) (A) (A)
                 (A) (A) (A)
 The electronic state is 1-A.
 Alpha  occ. eigenvalues --  -10.20654 -10.20492 -10.20437 -10.20237 -10.18840
 Alpha  occ. eigenvalues --  -10.18132  -0.83306  -0.74574  -0.72683  -0.61788
 Alpha  occ. eigenvalues --   -0.57925  -0.51078  -0.46717  -0.43337  -0.41586
 Alpha  occ. eigenvalues --   -0.40357  -0.35096  -0.34148  -0.33109  -0.25243
 Alpha  occ. eigenvalues --   -0.23318
 Alpha virt. eigenvalues --   -0.02083  -0.00035   0.08102   0.12172   0.13486
 Alpha virt. eigenvalues --    0.14983   0.16387   0.17270   0.20642   0.27753
 Alpha virt. eigenvalues --    0.28096   0.28891   0.30667   0.47758   0.48134
 Alpha virt. eigenvalues --    0.49579   0.52980   0.54232   0.58479   0.59124
 Alpha virt. eigenvalues --    0.59999   0.60782   0.61142   0.62145   0.65044
 Alpha virt. eigenvalues --    0.65942   0.66770   0.73316   0.77504   0.78358
 Alpha virt. eigenvalues --    0.82242   0.83435   0.86932   0.90761   0.91634
 Alpha virt. eigenvalues --    0.93367   0.97657   1.03281   1.04252   1.09482
 Alpha virt. eigenvalues --    1.10035   1.14377   1.17688   1.29073   1.33552
 Alpha virt. eigenvalues --    1.34915   1.41750   1.44494   1.47674   1.54002
 Alpha virt. eigenvalues --    1.70580   1.71066   1.73436   1.75586   1.85247
 Alpha virt. eigenvalues --    1.90112   1.91657   1.95790   1.96544   1.99056
 Alpha virt. eigenvalues --    2.00923   2.06047   2.09593   2.20247   2.23963
 Alpha virt. eigenvalues --    2.29048   2.30457   2.32867   2.37046   2.38429
 Alpha virt. eigenvalues --    2.43718   2.44497   2.45966   2.47352   2.49956
 Alpha virt. eigenvalues --    2.51680   2.52745   2.57524   2.59135   2.66055
 Alpha virt. eigenvalues --    2.72773   2.78641   2.80246   2.89537   2.96032
 Alpha virt. eigenvalues --    3.11730   3.14125   3.18241   3.28972   3.35137
 Alpha virt. eigenvalues --    3.51892   3.72381   4.05897   4.09040   4.14449
 Alpha virt. eigenvalues --    4.18040   4.41642   4.45847   4.76634
          Condensed to atoms (all electrons):
               1          2          3          4          5          6
     1  C    4.878335   0.518694  -0.033704  -0.041473  -0.021530   0.498953
     2  C    0.518694   4.832666   0.526719  -0.027584  -0.031437  -0.025611
     3  C   -0.033704   0.526719   4.869851   0.507316  -0.036973  -0.039760
     4  C   -0.041473  -0.027584   0.507316   4.870398   0.536269  -0.031846
     5  C   -0.021530  -0.031437  -0.036973   0.536269   4.834451   0.524594
     6  C    0.498953  -0.025611  -0.039760  -0.031846   0.524594   4.809987
     7  H    0.370961  -0.042398   0.004646   0.000305   0.003173  -0.039131
     8  H   -0.047528   0.004946   0.000706   0.007955  -0.056159   0.385343
     9  H    0.005237   0.000153   0.006859  -0.049654   0.374269  -0.042376
    10  H    0.000303   0.002876  -0.031030   0.358223  -0.045789   0.005369
    11  H    0.004668  -0.038100   0.360621  -0.038869   0.004184   0.000238
    12  H   -0.035446   0.359193  -0.039317   0.003923   0.000179   0.003252
               7          8          9         10         11         12
     1  C    0.370961  -0.047528   0.005237   0.000303   0.004668  -0.035446
     2  C   -0.042398   0.004946   0.000153   0.002876  -0.038100   0.359193
     3  C    0.004646   0.000706   0.006859  -0.031030   0.360621  -0.039317
     4  C    0.000305   0.007955  -0.049654   0.358223  -0.038869   0.003923
     5  C    0.003173  -0.056159   0.374269  -0.045789   0.004184   0.000179
     6  C   -0.039131   0.385343  -0.042376   0.005369   0.000238   0.003252
     7  H    0.615466  -0.003770  -0.000106   0.000010  -0.000159  -0.005351
     8  H   -0.003770   0.655056  -0.008469  -0.000415   0.000009  -0.000117
     9  H   -0.000106  -0.008469   0.642277  -0.010666  -0.000196   0.000009
    10  H    0.000010  -0.000415  -0.010666   0.637965  -0.002818  -0.000086
    11  H   -0.000159   0.000009  -0.000196  -0.002818   0.628166  -0.006123
    12  H   -0.005351  -0.000117   0.000009  -0.000086  -0.006123   0.633057
 Mulliken charges:
               1
     1  C   -0.097469
     2  C   -0.080116
     3  C   -0.095934
     4  C   -0.094962
     5  C   -0.085229
     6  C   -0.049012
     7  H    0.096352
     8  H    0.062443
     9  H    0.082664
    10  H    0.086058
    11  H    0.088379
    12  H    0.086825
 Sum of Mulliken charges =  -0.00000
 Mulliken charges with hydrogens summed into heavy atoms:
               1
     1  C   -0.001116
     2  C    0.006709
     3  C   -0.007555
     4  C   -0.008903
     5  C   -0.002565
     6  C    0.013431
 Electronic spatial extent (au):  <R**2>=            474.5869
 Charge=             -0.0000 electrons
 Dipole moment (field-independent basis, Debye):
    X=              0.1388    Y=             -0.0443    Z=              0.0632  Tot=              0.1588
 Quadrupole moment (field-independent basis, Debye-Ang):
   XX=            -30.8107   YY=            -32.2020   ZZ=            -38.8868
   XY=             -0.4109   XZ=             -0.5470   YZ=              0.0280
 Traceless Quadrupole moment (field-independent basis, Debye-Ang):
   XX=              3.1558   YY=              1.7645   ZZ=             -4.9203
   XY=             -0.4109   XZ=             -0.5470   YZ=              0.0280
 Octapole moment (field-independent basis, Debye-Ang**2):
  XXX=              1.9398  YYY=             -0.6121  ZZZ=              0.0504  XYY=             -0.2005
  XXY=             -0.0127  XXZ=              0.6065  XZZ=              0.3944  YZZ=             -0.8479
  YYZ=              0.1705  XYZ=              0.5585
 Hexadecapole moment (field-independent basis, Debye-Ang**3):
 XXXX=           -287.4009 YYYY=           -275.4738 ZZZZ=            -41.9413 XXXY=              1.2947
 XXXZ=             -2.7538 YYYX=             -5.3572 YYYZ=              1.0244 ZZZX=             -0.5249
 ZZZY=              0.1525 XXYY=            -93.2751 XXZZ=            -65.1285 YYZZ=            -60.8420
 XXYZ=             -0.9392 YYXZ=             -1.5842 ZZXY=             -0.3075
 N-N= 1.991370649227D+02 E-N=-9.351637463087D+02  KE= 2.295752044525D+02
 1\1\GINC-DESKTOP-PRN5QE3\SP\RB3LYP TD-FC\6-31G(d,p)\C6H6\SHOHEI\10-Nov
 -2023\0\\# TD=(NStates=1) B3LYP/6-31G(d,p)\\EMISPCT\\0,1\C,0,0.3867077
 192,1.4000726765,-0.0146244689\C,0,1.3616482131,0.4075171595,0.0533211
 107\C,0,1.0280259994,-0.9807000684,-0.048947752\C,0,-0.3971171647,-1.3
 818959225,-0.0335167011\C,0,-1.3618121139,-0.3985685744,0.121042864\C,
 0,-1.0300007911,0.9973491136,-0.0882857712\H,0,0.7186578309,2.42819747
 17,0.2104505645\H,0,-1.8142241901,1.4588631155,-0.1142276511\H,0,-2.28
 60343756,-0.7861978165,0.0073403397\H,0,-0.8464632204,-2.4508786864,-0
 .0466894907\H,0,1.8595970782,-1.7604209222,0.0240467548\H,0,2.52743188
 88,0.6256965017,0.0695486341\\Version=EM64L-G16RevB.01\State=1-A\HF=-2
 32.1776351\RMSD=8.827e-09\PG=C01 [X(C6H6)]\\@


 Cherishing children is the mark of a civilized society.
 -- Joan Ganz Cooney
 Job cpu time:       0 days  0 hours  3 minutes  6.1 seconds.
 Elapsed time:       0 days  0 hours  0 minutes 47.2 seconds.
 File lengths (MBytes):  RWF=    116 Int=      0 D2E=      0 Chk=      3 Scr=      1
 Normal termination of Gaussian 16 at Fri Nov 10 22:29:07 2023.
