 Entering Gaussian System, Link 0=g16
 Input=Geometry-227-.com
 Output=Geometry-227-.log
 Initial command:
 /home/shohei/gaussian/g16/l1.exe "/home/shohei/gaussian/scratch/Gau-31731.inp" -scrdir="/home/shohei/gaussian/scratch/"
 Entering Link 1 = /home/shohei/gaussian/g16/l1.exe PID=     31733.
  
 Copyright (c) 1988-2017, Gaussian, Inc.  All Rights Reserved.
  
 This is part of the Gaussian(R) 16 program.  It is based on
 the Gaussian(R) 09 system (copyright 2009, Gaussian, Inc.),
 the Gaussian(R) 03 system (copyright 2003, Gaussian, Inc.),
 the Gaussian(R) 98 system (copyright 1998, Gaussian, Inc.),
 the Gaussian(R) 94 system (copyright 1995, Gaussian, Inc.),
 the Gaussian 92(TM) system (copyright 1992, Gaussian, Inc.),
 the Gaussian 90(TM) system (copyright 1990, Gaussian, Inc.),
 the Gaussian 88(TM) system (copyright 1988, Gaussian, Inc.),
 the Gaussian 86(TM) system (copyright 1986, Carnegie Mellon
 University), and the Gaussian 82(TM) system (copyright 1983,
 Carnegie Mellon University). Gaussian is a federally registered
 trademark of Gaussian, Inc.
  
 This software contains proprietary and confidential information,
 including trade secrets, belonging to Gaussian, Inc.
  
 This software is provided under written license and may be
 used, copied, transmitted, or stored only in accord with that
 written license.
  
 The following legend is applicable only to US Government
 contracts under FAR:
  
                    RESTRICTED RIGHTS LEGEND
  
 Use, reproduction and disclosure by the US Government is
 subject to restrictions as set forth in subparagraphs (a)
 and (c) of the Commercial Computer Software - Restricted
 Rights clause in FAR 52.227-19.
  
 Gaussian, Inc.
 340 Quinnipiac St., Bldg. 40, Wallingford CT 06492
  
  
 ---------------------------------------------------------------
 Warning -- This program may not be used in any manner that
 competes with the business of Gaussian, Inc. or will provide
 assistance to any competitor of Gaussian, Inc.  The licensee
 of this program is prohibited from giving any competitor of
 Gaussian, Inc. access to this program.  By using this program,
 the user acknowledges that Gaussian, Inc. is engaged in the
 business of creating and licensing software in the field of
 computational chemistry and represents and warrants to the
 licensee that it is not a competitor of Gaussian, Inc. and that
 it will not use this program in any manner prohibited above.
 ---------------------------------------------------------------
  

 Cite this work as:
 Gaussian 16, Revision B.01,
 M. J. Frisch, G. W. Trucks, H. B. Schlegel, G. E. Scuseria, 
 M. A. Robb, J. R. Cheeseman, G. Scalmani, V. Barone, 
 G. A. Petersson, H. Nakatsuji, X. Li, M. Caricato, A. V. Marenich, 
 J. Bloino, B. G. Janesko, R. Gomperts, B. Mennucci, H. P. Hratchian, 
 J. V. Ortiz, A. F. Izmaylov, J. L. Sonnenberg, D. Williams-Young, 
 F. Ding, F. Lipparini, F. Egidi, J. Goings, B. Peng, A. Petrone, 
 T. Henderson, D. Ranasinghe, V. G. Zakrzewski, J. Gao, N. Rega, 
 G. Zheng, W. Liang, M. Hada, M. Ehara, K. Toyota, R. Fukuda, 
 J. Hasegawa, M. Ishida, T. Nakajima, Y. Honda, O. Kitao, H. Nakai, 
 T. Vreven, K. Throssell, J. A. Montgomery, Jr., J. E. Peralta, 
 F. Ogliaro, M. J. Bearpark, J. J. Heyd, E. N. Brothers, K. N. Kudin, 
 V. N. Staroverov, T. A. Keith, R. Kobayashi, J. Normand, 
 K. Raghavachari, A. P. Rendell, J. C. Burant, S. S. Iyengar, 
 J. Tomasi, M. Cossi, J. M. Millam, M. Klene, C. Adamo, R. Cammi, 
 J. W. Ochterski, R. L. Martin, K. Morokuma, O. Farkas, 
 J. B. Foresman, and D. J. Fox, Gaussian, Inc., Wallingford CT, 2016.
 
 ******************************************
 Gaussian 16:  EM64L-G16RevB.01 20-Dec-2017
                10-Nov-2023 
 ******************************************
 %nproc=4
 Will use up to    4 processors via shared memory.
 %Mem=2Gb
 ---------------------------------
 # TD=(NStates=1) B3LYP/6-31G(d,p)
 ---------------------------------
 1/38=1,172=1/1;
 2/12=2,17=6,18=5,40=1/2;
 3/5=1,6=6,7=101,11=9,25=1,30=1,74=-5/1,2,3,8;
 4//1;
 5/5=2,38=5/2;
 8/6=1,10=2,108=1/1;
 9/41=1,42=1,70=2/14;
 6/7=2,8=2,9=2,10=2/1;
 99/5=1,9=1/99;
 -------
 EMISPCT
 -------
 Symbolic Z-matrix:
 Charge =  0 Multiplicity = 1
 6                     0.35449   1.46886   0.09587 
 6                     1.40561   0.33833  -0.00787 
 6                     0.98114  -0.98876  -0.05673 
 6                    -0.37707  -1.42024   0.11304 
 6                    -1.30986  -0.38658  -0.00806 
 6                    -1.05547   0.97292  -0.08142 
 1                     0.55361   2.62511   0.34821 
 1                    -1.84554   1.68058  -0.34853 
 1                    -2.4836   -0.55193  -0.12946 
 1                    -0.6887   -2.50805   0.02621 
 1                     1.9421   -1.57203  -0.30411 
 1                     2.4841    0.48937  -0.34174 
 
                          Input orientation:                          
 ---------------------------------------------------------------------
 Center     Atomic      Atomic             Coordinates (Angstroms)
 Number     Number       Type             X           Y           Z
 ---------------------------------------------------------------------
      1          6           0        0.354493    1.468860    0.095872
      2          6           0        1.405607    0.338325   -0.007866
      3          6           0        0.981142   -0.988759   -0.056730
      4          6           0       -0.377069   -1.420241    0.113037
      5          6           0       -1.309862   -0.386581   -0.008058
      6          6           0       -1.055471    0.972919   -0.081421
      7          1           0        0.553605    2.625112    0.348208
      8          1           0       -1.845537    1.680577   -0.348527
      9          1           0       -2.483596   -0.551927   -0.129456
     10          1           0       -0.688698   -2.508053    0.026212
     11          1           0        1.942101   -1.572027   -0.304113
     12          1           0        2.484099    0.489369   -0.341735
 ---------------------------------------------------------------------
                    Distance matrix (angstroms):
                    1          2          3          4          5
     1  C    0.000000
     2  C    1.547163   0.000000
     3  C    2.540840   1.394170   0.000000
     4  C    2.980333   2.507012   1.435178   0.000000
     5  C    2.494702   2.810562   2.369322   1.397577   0.000000
     6  C    1.505120   2.542641   2.827823   2.495047   1.385040
     7  H    1.200099   2.466189   3.661534   4.157685   3.559456
     8  H    2.254428   3.533784   3.898797   3.461866   2.162408
     9  H    3.491289   3.991645   3.492924   2.291338   1.191524
    10  H    4.112048   3.533998   2.259092   1.134894   2.210806
    11  H    3.453619   2.006249   1.151018   2.361271   3.473931
    12  H    2.384560   1.139047   2.127198   3.469829   3.908039
                    6          7          8          9         10
     6  C    0.000000
     7  H    2.345943   0.000000
     8  H    1.093769   2.670856   0.000000
     9  H    2.089738   4.421123   2.332206   0.000000
    10  H    3.501895   5.291161   4.361574   2.659383   0.000000
    11  H    3.938500   4.468716   4.992756   4.545097   2.811825
    12  H    3.581918   2.960444   4.490521   5.080094   4.380247
                   11         12
    11  H    0.000000
    12  H    2.131791   0.000000
 Stoichiometry    C6H6
 Framework group  C1[X(C6H6)]
 Deg. of freedom    30
 Full point group                 C1      NOp   1
 Largest Abelian subgroup         C1      NOp   1
 Largest concise Abelian subgroup C1      NOp   1
                         Standard orientation:                         
 ---------------------------------------------------------------------
 Center     Atomic      Atomic             Coordinates (Angstroms)
 Number     Number       Type             X           Y           Z
 ---------------------------------------------------------------------
      1          6           0        1.370628    0.634257   -0.096836
      2          6           0        0.056347    1.445300   -0.004166
      3          6           0       -1.163025    0.770644    0.036836
      4          6           0       -1.320551   -0.645870   -0.131709
      5          6           0       -0.125984   -1.359340   -0.000588
      6          6           0        1.157393   -0.844985    0.081382
      7          1           0        2.467819    1.054267   -0.341789
      8          1           0        2.003338   -1.481690    0.355815
      9          1           0       -0.060539   -2.542598    0.123291
     10          1           0       -2.327485   -1.163196   -0.051442
     11          1           0       -1.924035    1.600058    0.277209
     12          1           0       -0.007944    2.533122    0.327403
 ---------------------------------------------------------------------
 Rotational constants (GHZ):           5.3912798           5.2434169           2.6823154
 Standard basis: 6-31G(d,p) (6D, 7F)
 There are   120 symmetry adapted cartesian basis functions of A   symmetry.
 There are   120 symmetry adapted basis functions of A   symmetry.
   120 basis functions,   210 primitive gaussians,   120 cartesian basis functions
    21 alpha electrons       21 beta electrons
       nuclear repulsion energy       196.5351662663 Hartrees.
 NAtoms=   12 NActive=   12 NUniq=   12 SFac= 1.00D+00 NAtFMM=   60 NAOKFM=F Big=F
 Integral buffers will be    131072 words long.
 Regular integral format.
 Two-electron integral symmetry is turned on.
 One-electron integrals computed using PRISM.
 NBasis=   120 RedAO= T EigKep=  1.00D-03  NBF=   120
 NBsUse=   120 1.00D-06 EigRej= -1.00D+00 NBFU=   120
 ExpMin= 1.61D-01 ExpMax= 3.05D+03 ExpMxC= 4.57D+02 IAcc=3 IRadAn=         5 AccDes= 0.00D+00
 Harris functional with IExCor=  402 and IRadAn=       5 diagonalized for initial guess.
 HarFok:  IExCor=  402 AccDes= 0.00D+00 IRadAn=         5 IDoV= 1 UseB2=F ITyADJ=14
 ICtDFT=  3500011 ScaDFX=  1.000000  1.000000  1.000000  1.000000
 FoFCou: FMM=F IPFlag=           0 FMFlag=      100000 FMFlg1=           0
         NFxFlg=           0 DoJE=T BraDBF=F KetDBF=T FulRan=T
         wScrn=  0.000000 ICntrl=       500 IOpCl=  0 I1Cent=   200000004 NGrid=           0
         NMat0=    1 NMatS0=      1 NMatT0=    0 NMatD0=    1 NMtDS0=    0 NMtDT0=    0
 Petite list used in FoFCou.
 Keep R1 ints in memory in canonical form, NReq=30147728.
 Requested convergence on RMS density matrix=1.00D-08 within 128 cycles.
 Requested convergence on MAX density matrix=1.00D-06.
 Requested convergence on             energy=1.00D-06.
 No special actions if energy rises.
 Integral accuracy reduced to 1.0D-05 until final iterations.
 Initial convergence to 1.0D-05 achieved.  Increase integral accuracy.
 SCF Done:  E(RB3LYP) =  -232.185926115     A.U. after   14 cycles
            NFock= 14  Conv=0.42D-08     -V/T= 2.0143
 DoSCS=F DFT=T ScalE2(SS,OS)=  1.000000  1.000000
 ExpMin= 1.61D-01 ExpMax= 3.05D+03 ExpMxC= 4.57D+02 IAcc=3 IRadAn=         5 AccDes= 0.00D+00
 HarFok:  IExCor=  205 AccDes= 0.00D+00 IRadAn=         5 IDoV=-2 UseB2=F ITyADJ=14
 ICtDFT= 12500011 ScaDFX=  1.000000  1.000000  1.000000  1.000000
 Range of M.O.s used for correlation:     7   120
 NBasis=   120 NAE=    21 NBE=    21 NFC=     6 NFV=     0
 NROrb=    114 NOA=    15 NOB=    15 NVA=    99 NVB=    99
 Keep R1, R2, and R3 ints in memory in canonical form, NReq=84032236.
 Orbital symmetries:
       Occupied  (A) (A) (A) (A) (A) (A) (A) (A) (A) (A) (A) (A)
                 (A) (A) (A) (A) (A) (A) (A) (A) (A)
       Virtual   (A) (A) (A) (A) (A) (A) (A) (A) (A) (A) (A) (A)
                 (A) (A) (A) (A) (A) (A) (A) (A) (A) (A) (A) (A)
                 (A) (A) (A) (A) (A) (A) (A) (A) (A) (A) (A) (A)
                 (A) (A) (A) (A) (A) (A) (A) (A) (A) (A) (A) (A)
                 (A) (A) (A) (A) (A) (A) (A) (A) (A) (A) (A) (A)
                 (A) (A) (A) (A) (A) (A) (A) (A) (A) (A) (A) (A)
                 (A) (A) (A) (A) (A) (A) (A) (A) (A) (A) (A) (A)
                 (A) (A) (A) (A) (A) (A) (A) (A) (A) (A) (A) (A)
                 (A) (A) (A)
     4 initial guesses have been made.
 Convergence on wavefunction:    0.001000000000000
 Iteration     1 Dimension     4 NMult     0 NNew      4
 CISAX will form     4 AO SS matrices at one time.
 New state      1 was old state      2
 Iteration     2 Dimension     6 NMult     4 NNew      2
 Iteration     3 Dimension     8 NMult     6 NNew      2
 Iteration     4 Dimension    10 NMult     8 NNew      2
 Iteration     5 Dimension    12 NMult    10 NNew      2
 ***********************************************************************
 Excited states from <AA,BB:AA,BB> singles matrix:
 ***********************************************************************
 
 Ground to excited state transition densities written to RWF  633
 Ground to excited state transition electric dipole moments (Au):
       state          X           Y           Z        Dip. S.      Osc.
         1        -0.1403      0.2476     -0.0120      0.0811      0.0097
 Ground to excited state transition velocity dipole moments (Au):
       state          X           Y           Z        Dip. S.      Osc.
         1         0.0246     -0.0435      0.0010      0.0025      0.0093
 Ground to excited state transition magnetic dipole moments (Au):
       state          X           Y           Z
         1         0.0171      0.0167      0.0329
 Ground to excited state transition velocity quadrupole moments (Au):
       state          XX          YY          ZZ          XY          XZ          YZ
         1        -0.0069      0.0067      0.0003      0.0047      0.0062     -0.0338
 <0|del|b> * <b|rxdel|0> + <0|del|b> * <b|delr+rdel|0>
 Rotatory Strengths (R) in cgs (10**-40 erg-esu-cm/Gauss)
       state          XX          YY          ZZ    R(velocity)    E-M Angle
         1        -0.8323     -0.7574      0.5074     -0.3608       97.74
 1/2[<0|r|b>*<b|rxdel|0> + (<0|rxdel|b>*<b|r|0>)*]
 Rotatory Strengths (R) in cgs (10**-40 erg-esu-cm/Gauss)
       state          XX          YY          ZZ     R(length)
         1         1.6970     -2.9189      0.2789     -0.3143
  1/2[<0|del|b>*<b|r|0> + (<0|r|b>*<b|del|0>)*] (Au)
       state          X           Y           Z        Dip. S.   Osc.(frdel)
         1        -0.0034     -0.0108     -0.0000      0.0142      0.0095

 Excitation energies and oscillator strengths:
 
 Excited State   1:      Singlet-A      4.8713 eV  254.52 nm  f=0.0097  <S**2>=0.000
      20 -> 22         0.59821
      21 -> 23        -0.37353
 This state for optimization and/or second-order correction.
 Total Energy, E(TD-HF/TD-DFT) =  -232.006910638    
 Copying the excited state density for this state as the 1-particle RhoCI density.
 SavETr:  write IOETrn=   770 NScale= 10 NData=  16 NLR=1 NState=    1 LETran=      28.

 **********************************************************************

            Population analysis using the SCF Density.

 **********************************************************************

 Orbital symmetries:
       Occupied  (A) (A) (A) (A) (A) (A) (A) (A) (A) (A) (A) (A)
                 (A) (A) (A) (A) (A) (A) (A) (A) (A)
       Virtual   (A) (A) (A) (A) (A) (A) (A) (A) (A) (A) (A) (A)
                 (A) (A) (A) (A) (A) (A) (A) (A) (A) (A) (A) (A)
                 (A) (A) (A) (A) (A) (A) (A) (A) (A) (A) (A) (A)
                 (A) (A) (A) (A) (A) (A) (A) (A) (A) (A) (A) (A)
                 (A) (A) (A) (A) (A) (A) (A) (A) (A) (A) (A) (A)
                 (A) (A) (A) (A) (A) (A) (A) (A) (A) (A) (A) (A)
                 (A) (A) (A) (A) (A) (A) (A) (A) (A) (A) (A) (A)
                 (A) (A) (A) (A) (A) (A) (A) (A) (A) (A) (A) (A)
                 (A) (A) (A)
 The electronic state is 1-A.
 Alpha  occ. eigenvalues --  -10.22788 -10.20788 -10.20694 -10.20240 -10.20139
 Alpha  occ. eigenvalues --  -10.20139  -0.83147  -0.73845  -0.71878  -0.60209
 Alpha  occ. eigenvalues --   -0.56897  -0.50080  -0.45084  -0.43025  -0.41094
 Alpha  occ. eigenvalues --   -0.40199  -0.35727  -0.33275  -0.32208  -0.24703
 Alpha  occ. eigenvalues --   -0.23395
 Alpha virt. eigenvalues --   -0.03211   0.00657   0.06930   0.11125   0.11821
 Alpha virt. eigenvalues --    0.12397   0.14692   0.17326   0.17941   0.25943
 Alpha virt. eigenvalues --    0.26656   0.28369   0.31647   0.46622   0.48099
 Alpha virt. eigenvalues --    0.50677   0.52823   0.53143   0.58452   0.58658
 Alpha virt. eigenvalues --    0.59951   0.60060   0.61703   0.63082   0.64717
 Alpha virt. eigenvalues --    0.65224   0.67157   0.72256   0.76261   0.78089
 Alpha virt. eigenvalues --    0.79096   0.81691   0.83980   0.86923   0.88190
 Alpha virt. eigenvalues --    0.92051   0.95808   0.98336   1.03055   1.06543
 Alpha virt. eigenvalues --    1.11166   1.18039   1.23222   1.26574   1.30631
 Alpha virt. eigenvalues --    1.32754   1.41608   1.46264   1.49753   1.57806
 Alpha virt. eigenvalues --    1.62450   1.68241   1.73607   1.75177   1.79818
 Alpha virt. eigenvalues --    1.81784   1.89802   1.91716   1.95959   1.97708
 Alpha virt. eigenvalues --    1.98099   2.03663   2.05873   2.14478   2.23580
 Alpha virt. eigenvalues --    2.26165   2.29090   2.31592   2.33084   2.35267
 Alpha virt. eigenvalues --    2.37302   2.39118   2.41449   2.42742   2.44459
 Alpha virt. eigenvalues --    2.48884   2.51819   2.53008   2.54150   2.62737
 Alpha virt. eigenvalues --    2.63734   2.66383   2.73875   2.84021   2.86558
 Alpha virt. eigenvalues --    3.04528   3.09142   3.11704   3.12709   3.26817
 Alpha virt. eigenvalues --    3.33034   3.40289   3.72048   4.07793   4.16603
 Alpha virt. eigenvalues --    4.17951   4.41058   4.43854   4.73088
          Condensed to atoms (all electrons):
               1          2          3          4          5          6
     1  C    4.949741   0.477437  -0.037415  -0.028931  -0.034895   0.506041
     2  C    0.477437   4.903418   0.545482  -0.042966  -0.033798  -0.038972
     3  C   -0.037415   0.545482   4.829816   0.514557  -0.035827  -0.028714
     4  C   -0.028931  -0.042966   0.514557   4.853219   0.537004  -0.047079
     5  C   -0.034895  -0.033798  -0.035827   0.537004   4.808174   0.544283
     6  C    0.506041  -0.038972  -0.028714  -0.047079   0.544283   4.849474
     7  H    0.346702  -0.026986   0.002455   0.000367   0.003051  -0.032865
     8  H   -0.040676   0.003197   0.000198   0.004821  -0.035648   0.370835
     9  H    0.004937   0.000370   0.003680  -0.034478   0.353797  -0.045351
    10  H    0.000155   0.003582  -0.036593   0.367124  -0.036271   0.003784
    11  H    0.005121  -0.050279   0.359765  -0.030336   0.003340   0.000483
    12  H   -0.032090   0.365437  -0.039306   0.004529   0.000295   0.002128
               7          8          9         10         11         12
     1  C    0.346702  -0.040676   0.004937   0.000155   0.005121  -0.032090
     2  C   -0.026986   0.003197   0.000370   0.003582  -0.050279   0.365437
     3  C    0.002455   0.000198   0.003680  -0.036593   0.359765  -0.039306
     4  C    0.000367   0.004821  -0.034478   0.367124  -0.030336   0.004529
     5  C    0.003051  -0.035648   0.353797  -0.036271   0.003340   0.000295
     6  C   -0.032865   0.370835  -0.045351   0.003784   0.000483   0.002128
     7  H    0.612321  -0.002203  -0.000147   0.000006  -0.000123  -0.001070
     8  H   -0.002203   0.611842  -0.009845  -0.000121   0.000011  -0.000102
     9  H   -0.000147  -0.009845   0.654974  -0.004787  -0.000111   0.000009
    10  H    0.000006  -0.000121  -0.004787   0.605745  -0.003022  -0.000132
    11  H   -0.000123   0.000011  -0.000111  -0.003022   0.641461  -0.013368
    12  H   -0.001070  -0.000102   0.000009  -0.000132  -0.013368   0.618865
 Mulliken charges:
               1
     1  C   -0.116128
     2  C   -0.105922
     3  C   -0.078098
     4  C   -0.097830
     5  C   -0.073505
     6  C   -0.084046
     7  H    0.098491
     8  H    0.097691
     9  H    0.076953
    10  H    0.100531
    11  H    0.087060
    12  H    0.094803
 Sum of Mulliken charges =  -0.00000
 Mulliken charges with hydrogens summed into heavy atoms:
               1
     1  C   -0.017637
     2  C   -0.011119
     3  C    0.008962
     4  C    0.002701
     5  C    0.003447
     6  C    0.013644
 Electronic spatial extent (au):  <R**2>=            484.7576
 Charge=             -0.0000 electrons
 Dipole moment (field-independent basis, Debye):
    X=              0.1153    Y=             -0.0506    Z=              0.4067  Tot=              0.4257
 Quadrupole moment (field-independent basis, Debye-Ang):
   XX=            -31.6660   YY=            -31.9088   ZZ=            -39.1083
   XY=             -0.3390   XZ=             -0.4140   YZ=              0.1293
 Traceless Quadrupole moment (field-independent basis, Debye-Ang):
   XX=              2.5617   YY=              2.3188   ZZ=             -4.8806
   XY=             -0.3390   XZ=             -0.4140   YZ=              0.1293
 Octapole moment (field-independent basis, Debye-Ang**2):
  XXX=              2.2918  YYY=              0.7242  ZZZ=              0.6252  XYY=             -0.8356
  XXY=             -1.0402  XXZ=              0.3158  XZZ=              0.0613  YZZ=             -0.0694
  YYZ=              3.2629  XYZ=             -2.1044
 Hexadecapole moment (field-independent basis, Debye-Ang**3):
 XXXX=           -289.6325 YYYY=           -290.7407 ZZZZ=            -44.5407 XXXY=              5.7411
 XXXZ=             -3.1136 YYYX=             -7.3856 YYYZ=              3.1626 ZZZX=             -0.1725
 ZZZY=              0.1520 XXYY=            -95.8832 XXZZ=            -64.9074 YYZZ=            -64.2505
 XXYZ=             -2.3279 YYXZ=             -0.6134 ZZXY=             -0.6880
 N-N= 1.965351662663D+02 E-N=-9.294869485139D+02  KE= 2.289189804387D+02
 1\1\GINC-DESKTOP-PRN5QE3\SP\RB3LYP TD-FC\6-31G(d,p)\C6H6\SHOHEI\10-Nov
 -2023\0\\# TD=(NStates=1) B3LYP/6-31G(d,p)\\EMISPCT\\0,1\C,0,0.3544928
 399,1.468860302,0.0958718695\C,0,1.405606987,0.3383252397,-0.007866012
 5\C,0,0.9811419146,-0.988759131,-0.0567295988\C,0,-0.3770689527,-1.420
 2414903,0.1130370357\C,0,-1.3098617119,-0.3865807744,-0.0080583772\C,0
 ,-1.0554706075,0.9729190705,-0.0814207954\H,0,0.5536054089,2.625112192
 3,0.3482082938\H,0,-1.8455373913,1.6805768224,-0.3485269956\H,0,-2.483
 5960418,-0.5519267445,-0.1294556646\H,0,-0.68869787,-2.5080526604,0.02
 62119561\H,0,1.9421010454,-1.5720273048,-0.3041127837\H,0,2.4840992486
 ,0.4893688004,-0.3417351309\\Version=EM64L-G16RevB.01\State=1-A\HF=-23
 2.1859261\RMSD=4.153e-09\PG=C01 [X(C6H6)]\\@


 ERROR IS A HARDY PLANT... IT FLOURISHETH IN EVERY SOIL.
            MARTIN FARQUHAR TUPPER
 Job cpu time:       0 days  0 hours  3 minutes  3.5 seconds.
 Elapsed time:       0 days  0 hours  0 minutes 46.6 seconds.
 File lengths (MBytes):  RWF=    116 Int=      0 D2E=      0 Chk=      3 Scr=      1
 Normal termination of Gaussian 16 at Fri Nov 10 22:40:50 2023.
