 Entering Gaussian System, Link 0=g16
 Input=Geometry-14-.com
 Output=Geometry-14-.log
 Initial command:
 /home/shohei/gaussian/g16/l1.exe "/home/shohei/gaussian/scratch/Gau-13703.inp" -scrdir="/home/shohei/gaussian/scratch/"
 Entering Link 1 = /home/shohei/gaussian/g16/l1.exe PID=     13705.
  
 Copyright (c) 1988-2017, Gaussian, Inc.  All Rights Reserved.
  
 This is part of the Gaussian(R) 16 program.  It is based on
 the Gaussian(R) 09 system (copyright 2009, Gaussian, Inc.),
 the Gaussian(R) 03 system (copyright 2003, Gaussian, Inc.),
 the Gaussian(R) 98 system (copyright 1998, Gaussian, Inc.),
 the Gaussian(R) 94 system (copyright 1995, Gaussian, Inc.),
 the Gaussian 92(TM) system (copyright 1992, Gaussian, Inc.),
 the Gaussian 90(TM) system (copyright 1990, Gaussian, Inc.),
 the Gaussian 88(TM) system (copyright 1988, Gaussian, Inc.),
 the Gaussian 86(TM) system (copyright 1986, Carnegie Mellon
 University), and the Gaussian 82(TM) system (copyright 1983,
 Carnegie Mellon University). Gaussian is a federally registered
 trademark of Gaussian, Inc.
  
 This software contains proprietary and confidential information,
 including trade secrets, belonging to Gaussian, Inc.
  
 This software is provided under written license and may be
 used, copied, transmitted, or stored only in accord with that
 written license.
  
 The following legend is applicable only to US Government
 contracts under FAR:
  
                    RESTRICTED RIGHTS LEGEND
  
 Use, reproduction and disclosure by the US Government is
 subject to restrictions as set forth in subparagraphs (a)
 and (c) of the Commercial Computer Software - Restricted
 Rights clause in FAR 52.227-19.
  
 Gaussian, Inc.
 340 Quinnipiac St., Bldg. 40, Wallingford CT 06492
  
  
 ---------------------------------------------------------------
 Warning -- This program may not be used in any manner that
 competes with the business of Gaussian, Inc. or will provide
 assistance to any competitor of Gaussian, Inc.  The licensee
 of this program is prohibited from giving any competitor of
 Gaussian, Inc. access to this program.  By using this program,
 the user acknowledges that Gaussian, Inc. is engaged in the
 business of creating and licensing software in the field of
 computational chemistry and represents and warrants to the
 licensee that it is not a competitor of Gaussian, Inc. and that
 it will not use this program in any manner prohibited above.
 ---------------------------------------------------------------
  

 Cite this work as:
 Gaussian 16, Revision B.01,
 M. J. Frisch, G. W. Trucks, H. B. Schlegel, G. E. Scuseria, 
 M. A. Robb, J. R. Cheeseman, G. Scalmani, V. Barone, 
 G. A. Petersson, H. Nakatsuji, X. Li, M. Caricato, A. V. Marenich, 
 J. Bloino, B. G. Janesko, R. Gomperts, B. Mennucci, H. P. Hratchian, 
 J. V. Ortiz, A. F. Izmaylov, J. L. Sonnenberg, D. Williams-Young, 
 F. Ding, F. Lipparini, F. Egidi, J. Goings, B. Peng, A. Petrone, 
 T. Henderson, D. Ranasinghe, V. G. Zakrzewski, J. Gao, N. Rega, 
 G. Zheng, W. Liang, M. Hada, M. Ehara, K. Toyota, R. Fukuda, 
 J. Hasegawa, M. Ishida, T. Nakajima, Y. Honda, O. Kitao, H. Nakai, 
 T. Vreven, K. Throssell, J. A. Montgomery, Jr., J. E. Peralta, 
 F. Ogliaro, M. J. Bearpark, J. J. Heyd, E. N. Brothers, K. N. Kudin, 
 V. N. Staroverov, T. A. Keith, R. Kobayashi, J. Normand, 
 K. Raghavachari, A. P. Rendell, J. C. Burant, S. S. Iyengar, 
 J. Tomasi, M. Cossi, J. M. Millam, M. Klene, C. Adamo, R. Cammi, 
 J. W. Ochterski, R. L. Martin, K. Morokuma, O. Farkas, 
 J. B. Foresman, and D. J. Fox, Gaussian, Inc., Wallingford CT, 2016.
 
 ******************************************
 Gaussian 16:  EM64L-G16RevB.01 20-Dec-2017
                10-Nov-2023 
 ******************************************
 %nproc=4
 Will use up to    4 processors via shared memory.
 %Mem=2Gb
 ---------------------------------
 # TD=(NStates=1) B3LYP/6-31G(d,p)
 ---------------------------------
 1/38=1,172=1/1;
 2/12=2,17=6,18=5,40=1/2;
 3/5=1,6=6,7=101,11=9,25=1,30=1,74=-5/1,2,3,8;
 4//1;
 5/5=2,38=5/2;
 8/6=1,10=2,108=1/1;
 9/41=1,42=1,70=2/14;
 6/7=2,8=2,9=2,10=2/1;
 99/5=1,9=1/99;
 -------
 EMISPCT
 -------
 Symbolic Z-matrix:
 Charge =  0 Multiplicity = 1
 6                     0.42431   1.39332   0.01634 
 6                     1.34027   0.37393   0.0611 
 6                     1.00137  -0.95983  -0.07791 
 6                    -0.37475  -1.41856   0.03157 
 6                    -1.37025  -0.38057   0.0829 
 6                    -1.01609   0.97249  -0.08224 
 1                     0.47208   2.59871   0.2391 
 1                    -1.77012   1.737    -0.39837 
 1                    -2.40301  -0.60465  -0.03158 
 1                    -0.61385  -2.58055   0.06241 
 1                     1.91558  -1.60377  -0.33938 
 1                     2.34709   0.67503   0.03377 
 
                          Input orientation:                          
 ---------------------------------------------------------------------
 Center     Atomic      Atomic             Coordinates (Angstroms)
 Number     Number       Type             X           Y           Z
 ---------------------------------------------------------------------
      1          6           0        0.424310    1.393322    0.016340
      2          6           0        1.340272    0.373926    0.061099
      3          6           0        1.001371   -0.959828   -0.077909
      4          6           0       -0.374747   -1.418556    0.031567
      5          6           0       -1.370248   -0.380573    0.082903
      6          6           0       -1.016092    0.972485   -0.082241
      7          1           0        0.472080    2.598705    0.239102
      8          1           0       -1.770123    1.737005   -0.398367
      9          1           0       -2.403014   -0.604650   -0.031575
     10          1           0       -0.613848   -2.580548    0.062410
     11          1           0        1.915575   -1.603772   -0.339384
     12          1           0        2.347095    0.675025    0.033766
 ---------------------------------------------------------------------
                    Distance matrix (angstroms):
                    1          2          3          4          5
     1  C    0.000000
     2  C    1.371189   0.000000
     3  C    2.424706   1.383140   0.000000
     4  C    2.923249   2.480959   1.454688   0.000000
     5  C    2.524198   2.813657   2.446625   1.439120   0.000000
     6  C    1.503854   2.435420   2.793565   2.478175   1.408356
     7  H    1.226725   2.394804   3.611621   4.110788   3.506376
     8  H    2.259565   3.426901   3.880306   3.476993   2.208089
     9  H    3.462362   3.870193   3.423176   2.186389   1.062978
    10  H    4.107498   3.542246   2.292456   1.186737   2.326467
    11  H    3.366450   2.098249   1.148392   2.327550   3.531456
    12  H    2.052646   1.051237   2.120422   3.433877   3.864627
                    6          7          8          9         10
     6  C    0.000000
     7  H    2.227669   0.000000
     8  H    1.119370   2.485230   0.000000
     9  H    2.100827   4.312878   2.453249   0.000000
    10  H    3.578654   5.294821   4.493389   2.667231   0.000000
    11  H    3.911252   4.480976   4.974800   4.443333   2.741079
    12  H    3.378307   2.694140   4.273876   4.919896   4.400768
                   11         12
    11  H    0.000000
    12  H    2.349121   0.000000
 Stoichiometry    C6H6
 Framework group  C1[X(C6H6)]
 Deg. of freedom    30
 Full point group                 C1      NOp   1
 Largest Abelian subgroup         C1      NOp   1
 Largest concise Abelian subgroup C1      NOp   1
                         Standard orientation:                         
 ---------------------------------------------------------------------
 Center     Atomic      Atomic             Coordinates (Angstroms)
 Number     Number       Type             X           Y           Z
 ---------------------------------------------------------------------
      1          6           0       -1.443671    0.175435   -0.017955
      2          6           0       -0.883268   -1.075174   -0.063611
      3          6           0        0.473767   -1.305992    0.071508
      4          6           0        1.450657   -0.234066   -0.041532
      5          6           0        0.905222    1.096728   -0.092066
      6          6           0       -0.474740    1.321614    0.077042
      7          1           0       -2.565583    0.620294   -0.237658
      8          1           0       -0.866992    2.321035    0.393719
      9          1           0        1.529080    1.950049    0.020034
     10          1           0        2.609714   -0.486587   -0.075664
     11          1           0        0.692579   -2.402597    0.333009
     12          1           0       -1.566597   -1.873466   -0.033755
 ---------------------------------------------------------------------
 Rotational constants (GHZ):           5.5809351           5.3116087           2.7402403
 Standard basis: 6-31G(d,p) (6D, 7F)
 There are   120 symmetry adapted cartesian basis functions of A   symmetry.
 There are   120 symmetry adapted basis functions of A   symmetry.
   120 basis functions,   210 primitive gaussians,   120 cartesian basis functions
    21 alpha electrons       21 beta electrons
       nuclear repulsion energy       198.8347122853 Hartrees.
 NAtoms=   12 NActive=   12 NUniq=   12 SFac= 1.00D+00 NAtFMM=   60 NAOKFM=F Big=F
 Integral buffers will be    131072 words long.
 Regular integral format.
 Two-electron integral symmetry is turned on.
 One-electron integrals computed using PRISM.
 NBasis=   120 RedAO= T EigKep=  8.49D-04  NBF=   120
 NBsUse=   120 1.00D-06 EigRej= -1.00D+00 NBFU=   120
 ExpMin= 1.61D-01 ExpMax= 3.05D+03 ExpMxC= 4.57D+02 IAcc=3 IRadAn=         5 AccDes= 0.00D+00
 Harris functional with IExCor=  402 and IRadAn=       5 diagonalized for initial guess.
 HarFok:  IExCor=  402 AccDes= 0.00D+00 IRadAn=         5 IDoV= 1 UseB2=F ITyADJ=14
 ICtDFT=  3500011 ScaDFX=  1.000000  1.000000  1.000000  1.000000
 FoFCou: FMM=F IPFlag=           0 FMFlag=      100000 FMFlg1=           0
         NFxFlg=           0 DoJE=T BraDBF=F KetDBF=T FulRan=T
         wScrn=  0.000000 ICntrl=       500 IOpCl=  0 I1Cent=   200000004 NGrid=           0
         NMat0=    1 NMatS0=      1 NMatT0=    0 NMatD0=    1 NMtDS0=    0 NMtDT0=    0
 Petite list used in FoFCou.
 Keep R1 ints in memory in canonical form, NReq=30147728.
 Requested convergence on RMS density matrix=1.00D-08 within 128 cycles.
 Requested convergence on MAX density matrix=1.00D-06.
 Requested convergence on             energy=1.00D-06.
 No special actions if energy rises.
 Integral accuracy reduced to 1.0D-05 until final iterations.
 EnCoef did     3 forward-backward iterations
 Initial convergence to 1.0D-05 achieved.  Increase integral accuracy.
 SCF Done:  E(RB3LYP) =  -232.204589430     A.U. after   14 cycles
            NFock= 14  Conv=0.23D-08     -V/T= 2.0128
 DoSCS=F DFT=T ScalE2(SS,OS)=  1.000000  1.000000
 ExpMin= 1.61D-01 ExpMax= 3.05D+03 ExpMxC= 4.57D+02 IAcc=3 IRadAn=         5 AccDes= 0.00D+00
 HarFok:  IExCor=  205 AccDes= 0.00D+00 IRadAn=         5 IDoV=-2 UseB2=F ITyADJ=14
 ICtDFT= 12500011 ScaDFX=  1.000000  1.000000  1.000000  1.000000
 Range of M.O.s used for correlation:     7   120
 NBasis=   120 NAE=    21 NBE=    21 NFC=     6 NFV=     0
 NROrb=    114 NOA=    15 NOB=    15 NVA=    99 NVB=    99
 Keep R1, R2, and R3 ints in memory in canonical form, NReq=84032236.
 Orbital symmetries:
       Occupied  (A) (A) (A) (A) (A) (A) (A) (A) (A) (A) (A) (A)
                 (A) (A) (A) (A) (A) (A) (A) (A) (A)
       Virtual   (A) (A) (A) (A) (A) (A) (A) (A) (A) (A) (A) (A)
                 (A) (A) (A) (A) (A) (A) (A) (A) (A) (A) (A) (A)
                 (A) (A) (A) (A) (A) (A) (A) (A) (A) (A) (A) (A)
                 (A) (A) (A) (A) (A) (A) (A) (A) (A) (A) (A) (A)
                 (A) (A) (A) (A) (A) (A) (A) (A) (A) (A) (A) (A)
                 (A) (A) (A) (A) (A) (A) (A) (A) (A) (A) (A) (A)
                 (A) (A) (A) (A) (A) (A) (A) (A) (A) (A) (A) (A)
                 (A) (A) (A) (A) (A) (A) (A) (A) (A) (A) (A) (A)
                 (A) (A) (A)
     4 initial guesses have been made.
 Convergence on wavefunction:    0.001000000000000
 Iteration     1 Dimension     4 NMult     0 NNew      4
 CISAX will form     4 AO SS matrices at one time.
 New state      1 was old state      2
 Iteration     2 Dimension     6 NMult     4 NNew      2
 Iteration     3 Dimension     8 NMult     6 NNew      2
 Iteration     4 Dimension    10 NMult     8 NNew      2
 Iteration     5 Dimension    12 NMult    10 NNew      2
 Iteration     6 Dimension    14 NMult    12 NNew      2
 ***********************************************************************
 Excited states from <AA,BB:AA,BB> singles matrix:
 ***********************************************************************
 
 Ground to excited state transition densities written to RWF  633
 Ground to excited state transition electric dipole moments (Au):
       state          X           Y           Z        Dip. S.      Osc.
         1         0.0805      0.1149     -0.0059      0.0197      0.0025
 Ground to excited state transition velocity dipole moments (Au):
       state          X           Y           Z        Dip. S.      Osc.
         1        -0.0173     -0.0219      0.0008      0.0008      0.0028
 Ground to excited state transition magnetic dipole moments (Au):
       state          X           Y           Z
         1        -0.0055      0.0331     -0.0334
 Ground to excited state transition velocity quadrupole moments (Au):
       state          XX          YY          ZZ          XY          XZ          YZ
         1         0.0048     -0.0135      0.0023     -0.0034     -0.0341     -0.0163
 <0|del|b> * <b|rxdel|0> + <0|del|b> * <b|delr+rdel|0>
 Rotatory Strengths (R) in cgs (10**-40 erg-esu-cm/Gauss)
       state          XX          YY          ZZ    R(velocity)    E-M Angle
         1        -2.8205      0.6685     -0.3114     -0.8211      119.66
 1/2[<0|r|b>*<b|rxdel|0> + (<0|rxdel|b>*<b|r|0>)*]
 Rotatory Strengths (R) in cgs (10**-40 erg-esu-cm/Gauss)
       state          XX          YY          ZZ     R(length)
         1         0.3149     -2.6916     -0.1400     -0.8389
  1/2[<0|del|b>*<b|r|0> + (<0|r|b>*<b|del|0>)*] (Au)
       state          X           Y           Z        Dip. S.   Osc.(frdel)
         1        -0.0014     -0.0025     -0.0000      0.0039      0.0026

 Excitation energies and oscillator strengths:
 
 Excited State   1:      Singlet-A      5.1158 eV  242.36 nm  f=0.0025  <S**2>=0.000
      20 -> 22         0.49253
      21 -> 22        -0.17513
      21 -> 23         0.46800
 This state for optimization and/or second-order correction.
 Total Energy, E(TD-HF/TD-DFT) =  -232.016588288    
 Copying the excited state density for this state as the 1-particle RhoCI density.
 SavETr:  write IOETrn=   770 NScale= 10 NData=  16 NLR=1 NState=    1 LETran=      28.

 **********************************************************************

            Population analysis using the SCF Density.

 **********************************************************************

 Orbital symmetries:
       Occupied  (A) (A) (A) (A) (A) (A) (A) (A) (A) (A) (A) (A)
                 (A) (A) (A) (A) (A) (A) (A) (A) (A)
       Virtual   (A) (A) (A) (A) (A) (A) (A) (A) (A) (A) (A) (A)
                 (A) (A) (A) (A) (A) (A) (A) (A) (A) (A) (A) (A)
                 (A) (A) (A) (A) (A) (A) (A) (A) (A) (A) (A) (A)
                 (A) (A) (A) (A) (A) (A) (A) (A) (A) (A) (A) (A)
                 (A) (A) (A) (A) (A) (A) (A) (A) (A) (A) (A) (A)
                 (A) (A) (A) (A) (A) (A) (A) (A) (A) (A) (A) (A)
                 (A) (A) (A) (A) (A) (A) (A) (A) (A) (A) (A) (A)
                 (A) (A) (A) (A) (A) (A) (A) (A) (A) (A) (A) (A)
                 (A) (A) (A)
 The electronic state is 1-A.
 Alpha  occ. eigenvalues --  -10.21466 -10.20845 -10.20120 -10.19993 -10.19508
 Alpha  occ. eigenvalues --  -10.18561  -0.83620  -0.74401  -0.72067  -0.59398
 Alpha  occ. eigenvalues --   -0.58768  -0.50302  -0.45547  -0.43229  -0.41742
 Alpha  occ. eigenvalues --   -0.39843  -0.36555  -0.33220  -0.32244  -0.25258
 Alpha  occ. eigenvalues --   -0.23316
 Alpha virt. eigenvalues --   -0.01960   0.00239   0.07640   0.10810   0.12877
 Alpha virt. eigenvalues --    0.14539   0.15032   0.18039   0.18049   0.26111
 Alpha virt. eigenvalues --    0.28558   0.29900   0.32856   0.46822   0.50343
 Alpha virt. eigenvalues --    0.51502   0.52750   0.54765   0.57202   0.59233
 Alpha virt. eigenvalues --    0.59893   0.60590   0.61038   0.62636   0.64570
 Alpha virt. eigenvalues --    0.66033   0.66387   0.72835   0.76249   0.78030
 Alpha virt. eigenvalues --    0.81410   0.82207   0.86106   0.90323   0.90899
 Alpha virt. eigenvalues --    0.91686   0.95655   1.05011   1.05622   1.06971
 Alpha virt. eigenvalues --    1.08910   1.13093   1.22023   1.25362   1.30413
 Alpha virt. eigenvalues --    1.37659   1.40929   1.44455   1.50673   1.53794
 Alpha virt. eigenvalues --    1.68608   1.71957   1.75136   1.77526   1.80324
 Alpha virt. eigenvalues --    1.90838   1.92442   1.92527   1.96334   1.99585
 Alpha virt. eigenvalues --    2.01354   2.04021   2.06492   2.17455   2.23069
 Alpha virt. eigenvalues --    2.26114   2.31567   2.32271   2.35721   2.38405
 Alpha virt. eigenvalues --    2.41553   2.42097   2.43770   2.44392   2.46516
 Alpha virt. eigenvalues --    2.49290   2.50693   2.56075   2.60572   2.63955
 Alpha virt. eigenvalues --    2.67361   2.71280   2.75120   2.81844   2.99562
 Alpha virt. eigenvalues --    3.06032   3.09717   3.16121   3.22990   3.30839
 Alpha virt. eigenvalues --    3.39092   3.50639   3.78189   4.10347   4.16549
 Alpha virt. eigenvalues --    4.17629   4.41773   4.43260   4.74774
          Condensed to atoms (all electrons):
               1          2          3          4          5          6
     1  C    4.884475   0.554089  -0.033809  -0.039367  -0.031280   0.485791
     2  C    0.554089   4.776867   0.542461  -0.032180  -0.030304  -0.043330
     3  C   -0.033809   0.542461   4.839603   0.521152  -0.038806  -0.039536
     4  C   -0.039367  -0.032180   0.521152   4.889279   0.508480  -0.033146
     5  C   -0.031280  -0.030304  -0.038806   0.508480   4.809406   0.554723
     6  C    0.485791  -0.043330  -0.039536  -0.033146   0.554723   4.892459
     7  H    0.347053  -0.025952   0.002974   0.000376   0.003209  -0.040155
     8  H   -0.037029   0.004142   0.000597   0.003778  -0.037199   0.362841
     9  H    0.005174   0.000204   0.004365  -0.041977   0.373045  -0.045595
    10  H    0.000282   0.003039  -0.033118   0.356882  -0.033170   0.003072
    11  H    0.005316  -0.044048   0.362930  -0.034229   0.003561   0.000345
    12  H   -0.049783   0.373672  -0.042484   0.005144   0.000350   0.005489
               7          8          9         10         11         12
     1  C    0.347053  -0.037029   0.005174   0.000282   0.005316  -0.049783
     2  C   -0.025952   0.004142   0.000204   0.003039  -0.044048   0.373672
     3  C    0.002974   0.000597   0.004365  -0.033118   0.362930  -0.042484
     4  C    0.000376   0.003778  -0.041977   0.356882  -0.034229   0.005144
     5  C    0.003209  -0.037199   0.373045  -0.033170   0.003561   0.000350
     6  C   -0.040155   0.362841  -0.045595   0.003072   0.000345   0.005489
     7  H    0.629292  -0.003145  -0.000182   0.000006  -0.000115  -0.004229
     8  H   -0.003145   0.622003  -0.006665  -0.000100   0.000010  -0.000224
     9  H   -0.000182  -0.006665   0.625602  -0.003939  -0.000120   0.000014
    10  H    0.000006  -0.000100  -0.003939   0.613699  -0.003019  -0.000131
    11  H   -0.000115   0.000010  -0.000120  -0.003019   0.631040  -0.009588
    12  H   -0.004229  -0.000224   0.000014  -0.000131  -0.009588   0.633053
 Mulliken charges:
               1
     1  C   -0.090911
     2  C   -0.078661
     3  C   -0.086328
     4  C   -0.104193
     5  C   -0.082016
     6  C   -0.102957
     7  H    0.090869
     8  H    0.090992
     9  H    0.090073
    10  H    0.096496
    11  H    0.087918
    12  H    0.088719
 Sum of Mulliken charges =  -0.00000
 Mulliken charges with hydrogens summed into heavy atoms:
               1
     1  C   -0.000042
     2  C    0.010057
     3  C    0.001590
     4  C   -0.007697
     5  C    0.008057
     6  C   -0.011966
 Electronic spatial extent (au):  <R**2>=            475.3019
 Charge=             -0.0000 electrons
 Dipole moment (field-independent basis, Debye):
    X=             -0.0054    Y=              0.0532    Z=              0.2345  Tot=              0.2405
 Quadrupole moment (field-independent basis, Debye-Ang):
   XX=            -31.7121   YY=            -31.6867   ZZ=            -38.8926
   XY=             -0.1806   XZ=              0.2809   YZ=              0.0819
 Traceless Quadrupole moment (field-independent basis, Debye-Ang):
   XX=              2.3850   YY=              2.4104   ZZ=             -4.7954
   XY=             -0.1806   XZ=              0.2809   YZ=              0.0819
 Octapole moment (field-independent basis, Debye-Ang**2):
  XXX=              1.2953  YYY=             -0.2303  ZZZ=              0.3987  XYY=             -0.9269
  XXY=              1.0271  XXZ=             -1.0789  XZZ=             -0.2204  YZZ=             -0.0189
  YYZ=              3.0440  XYZ=             -0.4356
 Hexadecapole moment (field-independent basis, Debye-Ang**3):
 XXXX=           -287.2206 YYYY=           -276.5939 ZZZZ=            -43.2076 XXXY=             -3.9964
 XXXZ=              2.4973 YYYX=              2.8351 YYYZ=              0.7579 ZZZX=              0.1658
 ZZZY=              0.2527 XXYY=            -95.3740 XXZZ=            -65.1467 YYZZ=            -61.1495
 XXYZ=             -0.1381 YYXZ=              0.0388 ZZXY=              0.2297
 N-N= 1.988347122853D+02 E-N=-9.344067015877D+02  KE= 2.292621393712D+02
 1\1\GINC-DESKTOP-PRN5QE3\SP\RB3LYP TD-FC\6-31G(d,p)\C6H6\SHOHEI\10-Nov
 -2023\0\\# TD=(NStates=1) B3LYP/6-31G(d,p)\\EMISPCT\\0,1\C,0,0.4243095
 53,1.3933222861,0.0163399014\C,0,1.3402723463,0.3739259534,0.061099453
 6\C,0,1.0013705302,-0.9598278021,-0.0779091699\C,0,-0.3747472808,-1.41
 85560957,0.0315672678\C,0,-1.370248434,-0.3805731269,0.0829027089\C,0,
 -1.0160916427,0.972485007,-0.0822413278\H,0,0.4720797501,2.5987053761,
 0.2391021478\H,0,-1.7701228356,1.7370045817,-0.39836675\H,0,-2.4030144
 913,-0.6046497679,-0.0315752553\H,0,-0.6138481433,-2.5805480288,0.0624
 103529\H,0,1.9155754506,-1.6037720417,-0.3393843424\H,0,2.3470945882,0
 .6750254677,0.0337657837\\Version=EM64L-G16RevB.01\State=1-A\HF=-232.2
 045894\RMSD=2.258e-09\PG=C01 [X(C6H6)]\\@


 IT MATTERS NOT HOW DEEP YOU PLOW,
 BUT HOW LONG YOU STAY IN THE FURROW.
 Job cpu time:       0 days  0 hours  3 minutes 35.5 seconds.
 Elapsed time:       0 days  0 hours  0 minutes 54.6 seconds.
 File lengths (MBytes):  RWF=    116 Int=      0 D2E=      0 Chk=      3 Scr=      1
 Normal termination of Gaussian 16 at Fri Nov 10 19:45:19 2023.
