 Entering Gaussian System, Link 0=g16
 Input=Geometry-197-.com
 Output=Geometry-197-.log
 Initial command:
 /home/shohei/gaussian/g16/l1.exe "/home/shohei/gaussian/scratch/Gau-29115.inp" -scrdir="/home/shohei/gaussian/scratch/"
 Entering Link 1 = /home/shohei/gaussian/g16/l1.exe PID=     29117.
  
 Copyright (c) 1988-2017, Gaussian, Inc.  All Rights Reserved.
  
 This is part of the Gaussian(R) 16 program.  It is based on
 the Gaussian(R) 09 system (copyright 2009, Gaussian, Inc.),
 the Gaussian(R) 03 system (copyright 2003, Gaussian, Inc.),
 the Gaussian(R) 98 system (copyright 1998, Gaussian, Inc.),
 the Gaussian(R) 94 system (copyright 1995, Gaussian, Inc.),
 the Gaussian 92(TM) system (copyright 1992, Gaussian, Inc.),
 the Gaussian 90(TM) system (copyright 1990, Gaussian, Inc.),
 the Gaussian 88(TM) system (copyright 1988, Gaussian, Inc.),
 the Gaussian 86(TM) system (copyright 1986, Carnegie Mellon
 University), and the Gaussian 82(TM) system (copyright 1983,
 Carnegie Mellon University). Gaussian is a federally registered
 trademark of Gaussian, Inc.
  
 This software contains proprietary and confidential information,
 including trade secrets, belonging to Gaussian, Inc.
  
 This software is provided under written license and may be
 used, copied, transmitted, or stored only in accord with that
 written license.
  
 The following legend is applicable only to US Government
 contracts under FAR:
  
                    RESTRICTED RIGHTS LEGEND
  
 Use, reproduction and disclosure by the US Government is
 subject to restrictions as set forth in subparagraphs (a)
 and (c) of the Commercial Computer Software - Restricted
 Rights clause in FAR 52.227-19.
  
 Gaussian, Inc.
 340 Quinnipiac St., Bldg. 40, Wallingford CT 06492
  
  
 ---------------------------------------------------------------
 Warning -- This program may not be used in any manner that
 competes with the business of Gaussian, Inc. or will provide
 assistance to any competitor of Gaussian, Inc.  The licensee
 of this program is prohibited from giving any competitor of
 Gaussian, Inc. access to this program.  By using this program,
 the user acknowledges that Gaussian, Inc. is engaged in the
 business of creating and licensing software in the field of
 computational chemistry and represents and warrants to the
 licensee that it is not a competitor of Gaussian, Inc. and that
 it will not use this program in any manner prohibited above.
 ---------------------------------------------------------------
  

 Cite this work as:
 Gaussian 16, Revision B.01,
 M. J. Frisch, G. W. Trucks, H. B. Schlegel, G. E. Scuseria, 
 M. A. Robb, J. R. Cheeseman, G. Scalmani, V. Barone, 
 G. A. Petersson, H. Nakatsuji, X. Li, M. Caricato, A. V. Marenich, 
 J. Bloino, B. G. Janesko, R. Gomperts, B. Mennucci, H. P. Hratchian, 
 J. V. Ortiz, A. F. Izmaylov, J. L. Sonnenberg, D. Williams-Young, 
 F. Ding, F. Lipparini, F. Egidi, J. Goings, B. Peng, A. Petrone, 
 T. Henderson, D. Ranasinghe, V. G. Zakrzewski, J. Gao, N. Rega, 
 G. Zheng, W. Liang, M. Hada, M. Ehara, K. Toyota, R. Fukuda, 
 J. Hasegawa, M. Ishida, T. Nakajima, Y. Honda, O. Kitao, H. Nakai, 
 T. Vreven, K. Throssell, J. A. Montgomery, Jr., J. E. Peralta, 
 F. Ogliaro, M. J. Bearpark, J. J. Heyd, E. N. Brothers, K. N. Kudin, 
 V. N. Staroverov, T. A. Keith, R. Kobayashi, J. Normand, 
 K. Raghavachari, A. P. Rendell, J. C. Burant, S. S. Iyengar, 
 J. Tomasi, M. Cossi, J. M. Millam, M. Klene, C. Adamo, R. Cammi, 
 J. W. Ochterski, R. L. Martin, K. Morokuma, O. Farkas, 
 J. B. Foresman, and D. J. Fox, Gaussian, Inc., Wallingford CT, 2016.
 
 ******************************************
 Gaussian 16:  EM64L-G16RevB.01 20-Dec-2017
                10-Nov-2023 
 ******************************************
 %nproc=4
 Will use up to    4 processors via shared memory.
 %Mem=2Gb
 ---------------------------------
 # TD=(NStates=1) B3LYP/6-31G(d,p)
 ---------------------------------
 1/38=1,172=1/1;
 2/12=2,17=6,18=5,40=1/2;
 3/5=1,6=6,7=101,11=9,25=1,30=1,74=-5/1,2,3,8;
 4//1;
 5/5=2,38=5/2;
 8/6=1,10=2,108=1/1;
 9/41=1,42=1,70=2/14;
 6/7=2,8=2,9=2,10=2/1;
 99/5=1,9=1/99;
 -------
 EMISPCT
 -------
 Symbolic Z-matrix:
 Charge =  0 Multiplicity = 1
 6                     0.34967   1.42733  -0.11701 
 6                     1.34509   0.3629    0.1323 
 6                     1.07543  -1.02986   0.00711 
 6                    -0.36497  -1.37735  -0.09355 
 6                    -1.35688  -0.4374    0.18027 
 6                    -1.07767   1.05804  -0.0404 
 1                     0.83142   2.52048  -0.31263 
 1                    -1.65594   1.94498  -0.03277 
 1                    -2.45889  -0.75851   0.04764 
 1                    -0.6011   -2.46697  -0.66886 
 1                     1.87074  -1.87297  -0.12961 
 1                     2.30795   0.62466   0.1571 
 
                          Input orientation:                          
 ---------------------------------------------------------------------
 Center     Atomic      Atomic             Coordinates (Angstroms)
 Number     Number       Type             X           Y           Z
 ---------------------------------------------------------------------
      1          6           0        0.349675    1.427333   -0.117012
      2          6           0        1.345089    0.362899    0.132299
      3          6           0        1.075429   -1.029861    0.007105
      4          6           0       -0.364972   -1.377353   -0.093545
      5          6           0       -1.356877   -0.437398    0.180270
      6          6           0       -1.077671    1.058036   -0.040400
      7          1           0        0.831419    2.520477   -0.312629
      8          1           0       -1.655935    1.944980   -0.032774
      9          1           0       -2.458893   -0.758511    0.047636
     10          1           0       -0.601103   -2.466970   -0.668856
     11          1           0        1.870738   -1.872974   -0.129610
     12          1           0        2.307950    0.624661    0.157103
 ---------------------------------------------------------------------
                    Distance matrix (angstroms):
                    1          2          3          4          5
     1  C    0.000000
     2  C    1.478521   0.000000
     3  C    2.565137   1.424139   0.000000
     4  C    2.894397   2.450264   1.485138   0.000000
     5  C    2.545175   2.818403   2.509405   1.393688   0.000000
     6  C    1.476334   2.526421   2.999569   2.538087   1.537197
     7  H    1.210499   2.262069   3.573048   4.083189   3.712225
     8  H    2.073047   3.396523   4.038765   3.564853   2.410508
     9  H    3.562734   3.966738   3.544955   2.188014   1.155485
    10  H    4.046493   3.526708   2.309321   1.254594   2.326236
    11  H    3.633981   2.311716   1.167067   2.290270   3.546040
    12  H    2.134072   0.998116   2.068586   3.348939   3.815686
                    6          7          8          9         10
     6  C    0.000000
     7  H    2.420220   0.000000
     8  H    1.058828   2.568355   0.000000
     9  H    2.283719   4.659153   2.821360   0.000000
    10  H    3.612166   5.201312   4.580674   2.623657   0.000000
    11  H    4.158352   4.518417   5.198420   4.474276   2.598772
    12  H    3.418954   2.448451   4.182306   4.964669   4.324694
                   11         12
    11  H    0.000000
    12  H    2.551771   0.000000
 Stoichiometry    C6H6
 Framework group  C1[X(C6H6)]
 Deg. of freedom    30
 Full point group                 C1      NOp   1
 Largest Abelian subgroup         C1      NOp   1
 Largest concise Abelian subgroup C1      NOp   1
                         Standard orientation:                         
 ---------------------------------------------------------------------
 Center     Atomic      Atomic             Coordinates (Angstroms)
 Number     Number       Type             X           Y           Z
 ---------------------------------------------------------------------
      1          6           0       -1.309001   -0.664073    0.114471
      2          6           0       -0.046494   -1.390036   -0.140634
      3          6           0        1.248271   -0.808305   -0.025117
      4          6           0        1.257340    0.673672    0.071297
      5          6           0        0.113558    1.423243   -0.197540
      6          6           0       -1.276818    0.809687    0.033498
      7          1           0       -2.261563   -1.382750    0.318034
      8          1           0       -2.272634    1.169496    0.031037
      9          1           0        0.174628    2.569877   -0.068518
     10          1           0        2.267492    1.154629    0.638993
     11          1           0        2.251919   -1.389063    0.107010
     12          1           0       -0.080983   -2.387319   -0.162410
 ---------------------------------------------------------------------
 Rotational constants (GHZ):           5.3561097           5.0428925           2.6375924
 Standard basis: 6-31G(d,p) (6D, 7F)
 There are   120 symmetry adapted cartesian basis functions of A   symmetry.
 There are   120 symmetry adapted basis functions of A   symmetry.
   120 basis functions,   210 primitive gaussians,   120 cartesian basis functions
    21 alpha electrons       21 beta electrons
       nuclear repulsion energy       194.5724934044 Hartrees.
 NAtoms=   12 NActive=   12 NUniq=   12 SFac= 1.00D+00 NAtFMM=   60 NAOKFM=F Big=F
 Integral buffers will be    131072 words long.
 Regular integral format.
 Two-electron integral symmetry is turned on.
 One-electron integrals computed using PRISM.
 NBasis=   120 RedAO= T EigKep=  1.33D-03  NBF=   120
 NBsUse=   120 1.00D-06 EigRej= -1.00D+00 NBFU=   120
 ExpMin= 1.61D-01 ExpMax= 3.05D+03 ExpMxC= 4.57D+02 IAcc=3 IRadAn=         5 AccDes= 0.00D+00
 Harris functional with IExCor=  402 and IRadAn=       5 diagonalized for initial guess.
 HarFok:  IExCor=  402 AccDes= 0.00D+00 IRadAn=         5 IDoV= 1 UseB2=F ITyADJ=14
 ICtDFT=  3500011 ScaDFX=  1.000000  1.000000  1.000000  1.000000
 FoFCou: FMM=F IPFlag=           0 FMFlag=      100000 FMFlg1=           0
         NFxFlg=           0 DoJE=T BraDBF=F KetDBF=T FulRan=T
         wScrn=  0.000000 ICntrl=       500 IOpCl=  0 I1Cent=   200000004 NGrid=           0
         NMat0=    1 NMatS0=      1 NMatT0=    0 NMatD0=    1 NMtDS0=    0 NMtDT0=    0
 Petite list used in FoFCou.
 Keep R1 ints in memory in canonical form, NReq=30147728.
 Requested convergence on RMS density matrix=1.00D-08 within 128 cycles.
 Requested convergence on MAX density matrix=1.00D-06.
 Requested convergence on             energy=1.00D-06.
 No special actions if energy rises.
 Integral accuracy reduced to 1.0D-05 until final iterations.
 Initial convergence to 1.0D-05 achieved.  Increase integral accuracy.
 SCF Done:  E(RB3LYP) =  -232.161121780     A.U. after   13 cycles
            NFock= 13  Conv=0.74D-08     -V/T= 2.0148
 DoSCS=F DFT=T ScalE2(SS,OS)=  1.000000  1.000000
 ExpMin= 1.61D-01 ExpMax= 3.05D+03 ExpMxC= 4.57D+02 IAcc=3 IRadAn=         5 AccDes= 0.00D+00
 HarFok:  IExCor=  205 AccDes= 0.00D+00 IRadAn=         5 IDoV=-2 UseB2=F ITyADJ=14
 ICtDFT= 12500011 ScaDFX=  1.000000  1.000000  1.000000  1.000000
 Range of M.O.s used for correlation:     7   120
 NBasis=   120 NAE=    21 NBE=    21 NFC=     6 NFV=     0
 NROrb=    114 NOA=    15 NOB=    15 NVA=    99 NVB=    99
 Keep R1, R2, and R3 ints in memory in canonical form, NReq=84032236.
 Orbital symmetries:
       Occupied  (A) (A) (A) (A) (A) (A) (A) (A) (A) (A) (A) (A)
                 (A) (A) (A) (A) (A) (A) (A) (A) (A)
       Virtual   (A) (A) (A) (A) (A) (A) (A) (A) (A) (A) (A) (A)
                 (A) (A) (A) (A) (A) (A) (A) (A) (A) (A) (A) (A)
                 (A) (A) (A) (A) (A) (A) (A) (A) (A) (A) (A) (A)
                 (A) (A) (A) (A) (A) (A) (A) (A) (A) (A) (A) (A)
                 (A) (A) (A) (A) (A) (A) (A) (A) (A) (A) (A) (A)
                 (A) (A) (A) (A) (A) (A) (A) (A) (A) (A) (A) (A)
                 (A) (A) (A) (A) (A) (A) (A) (A) (A) (A) (A) (A)
                 (A) (A) (A) (A) (A) (A) (A) (A) (A) (A) (A) (A)
                 (A) (A) (A)
     4 initial guesses have been made.
 Convergence on wavefunction:    0.001000000000000
 Iteration     1 Dimension     4 NMult     0 NNew      4
 CISAX will form     4 AO SS matrices at one time.
 Iteration     2 Dimension     6 NMult     4 NNew      2
 Iteration     3 Dimension     8 NMult     6 NNew      2
 Iteration     4 Dimension    10 NMult     8 NNew      2
 Iteration     5 Dimension    12 NMult    10 NNew      2
 ***********************************************************************
 Excited states from <AA,BB:AA,BB> singles matrix:
 ***********************************************************************
 
 Ground to excited state transition densities written to RWF  633
 Ground to excited state transition electric dipole moments (Au):
       state          X           Y           Z        Dip. S.      Osc.
         1        -0.1335      0.0573      0.0082      0.0212      0.0024
 Ground to excited state transition velocity dipole moments (Au):
       state          X           Y           Z        Dip. S.      Osc.
         1         0.0221     -0.0124     -0.0020      0.0006      0.0025
 Ground to excited state transition magnetic dipole moments (Au):
       state          X           Y           Z
         1        -0.0625     -0.0041      0.0772
 Ground to excited state transition velocity quadrupole moments (Au):
       state          XX          YY          ZZ          XY          XZ          YZ
         1        -0.0166     -0.0150      0.0073      0.0060      0.0368     -0.0264
 <0|del|b> * <b|rxdel|0> + <0|del|b> * <b|delr+rdel|0>
 Rotatory Strengths (R) in cgs (10**-40 erg-esu-cm/Gauss)
       state          XX          YY          ZZ    R(velocity)    E-M Angle
         1         0.7008     -4.3465     -2.4809     -2.0422      126.00
 1/2[<0|r|b>*<b|rxdel|0> + (<0|rxdel|b>*<b|r|0>)*]
 Rotatory Strengths (R) in cgs (10**-40 erg-esu-cm/Gauss)
       state          XX          YY          ZZ     R(length)
         1        -5.8954      0.1671     -0.4461     -2.0581
  1/2[<0|del|b>*<b|r|0> + (<0|r|b>*<b|del|0>)*] (Au)
       state          X           Y           Z        Dip. S.   Osc.(frdel)
         1        -0.0029     -0.0007     -0.0000      0.0037      0.0025

 Excitation energies and oscillator strengths:
 
 Excited State   1:      Singlet-A      4.6629 eV  265.90 nm  f=0.0024  <S**2>=0.000
      20 -> 22        -0.17043
      20 -> 23        -0.41206
      21 -> 22         0.51622
      21 -> 23        -0.18497
 This state for optimization and/or second-order correction.
 Total Energy, E(TD-HF/TD-DFT) =  -231.989765182    
 Copying the excited state density for this state as the 1-particle RhoCI density.
 SavETr:  write IOETrn=   770 NScale= 10 NData=  16 NLR=1 NState=    1 LETran=      28.

 **********************************************************************

            Population analysis using the SCF Density.

 **********************************************************************

 Orbital symmetries:
       Occupied  (A) (A) (A) (A) (A) (A) (A) (A) (A) (A) (A) (A)
                 (A) (A) (A) (A) (A) (A) (A) (A) (A)
       Virtual   (A) (A) (A) (A) (A) (A) (A) (A) (A) (A) (A) (A)
                 (A) (A) (A) (A) (A) (A) (A) (A) (A) (A) (A) (A)
                 (A) (A) (A) (A) (A) (A) (A) (A) (A) (A) (A) (A)
                 (A) (A) (A) (A) (A) (A) (A) (A) (A) (A) (A) (A)
                 (A) (A) (A) (A) (A) (A) (A) (A) (A) (A) (A) (A)
                 (A) (A) (A) (A) (A) (A) (A) (A) (A) (A) (A) (A)
                 (A) (A) (A) (A) (A) (A) (A) (A) (A) (A) (A) (A)
                 (A) (A) (A) (A) (A) (A) (A) (A) (A) (A) (A) (A)
                 (A) (A) (A)
 The electronic state is 1-A.
 Alpha  occ. eigenvalues --  -10.21693 -10.21578 -10.21551 -10.21484 -10.21098
 Alpha  occ. eigenvalues --  -10.19287  -0.82030  -0.72803  -0.72199  -0.59872
 Alpha  occ. eigenvalues --   -0.57294  -0.49654  -0.46272  -0.42351  -0.40650
 Alpha  occ. eigenvalues --   -0.39708  -0.35524  -0.33801  -0.31612  -0.24068
 Alpha  occ. eigenvalues --   -0.23488
 Alpha virt. eigenvalues --   -0.02334  -0.01775   0.06918   0.08953   0.11916
 Alpha virt. eigenvalues --    0.13629   0.14841   0.15549   0.18732   0.26163
 Alpha virt. eigenvalues --    0.26208   0.27284   0.30812   0.43680   0.48013
 Alpha virt. eigenvalues --    0.48660   0.53011   0.54757   0.57337   0.58377
 Alpha virt. eigenvalues --    0.58776   0.59816   0.60694   0.62824   0.63072
 Alpha virt. eigenvalues --    0.65623   0.66322   0.70316   0.76300   0.77339
 Alpha virt. eigenvalues --    0.78917   0.81128   0.86801   0.88196   0.91992
 Alpha virt. eigenvalues --    0.92237   0.93014   0.97451   1.02375   1.06140
 Alpha virt. eigenvalues --    1.09524   1.10989   1.18302   1.25217   1.33881
 Alpha virt. eigenvalues --    1.34319   1.41995   1.44069   1.48195   1.55140
 Alpha virt. eigenvalues --    1.56425   1.67163   1.70765   1.77864   1.78816
 Alpha virt. eigenvalues --    1.85997   1.89004   1.92037   1.95800   1.97513
 Alpha virt. eigenvalues --    1.99446   2.01283   2.04244   2.16150   2.16515
 Alpha virt. eigenvalues --    2.22165   2.28198   2.29347   2.34331   2.36523
 Alpha virt. eigenvalues --    2.38178   2.38382   2.41996   2.43444   2.45030
 Alpha virt. eigenvalues --    2.46988   2.49554   2.49832   2.56203   2.60503
 Alpha virt. eigenvalues --    2.63387   2.67031   2.72619   2.79844   2.90204
 Alpha virt. eigenvalues --    2.95406   3.04401   3.11534   3.19808   3.23420
 Alpha virt. eigenvalues --    3.41479   3.51874   3.72543   4.06137   4.15572
 Alpha virt. eigenvalues --    4.17919   4.39013   4.43625   4.67987
          Condensed to atoms (all electrons):
               1          2          3          4          5          6
     1  C    4.920433   0.508044  -0.031380  -0.032650  -0.035275   0.504280
     2  C    0.508044   4.808707   0.546316  -0.043325  -0.025656  -0.034691
     3  C   -0.031380   0.546316   4.887999   0.477242  -0.039920  -0.030329
     4  C   -0.032650  -0.043325   0.477242   4.881102   0.545252  -0.029528
     5  C   -0.035275  -0.025656  -0.039920   0.545252   4.890232   0.467016
     6  C    0.504280  -0.034691  -0.030329  -0.029528   0.467016   4.918599
     7  H    0.353149  -0.036404   0.003024   0.000258   0.002482  -0.029804
     8  H   -0.045451   0.003921   0.000540   0.002457  -0.028338   0.370385
     9  H    0.003275   0.000128   0.004183  -0.038774   0.361960  -0.040214
    10  H    0.000382   0.003638  -0.035317   0.346561  -0.032469   0.002502
    11  H    0.002989  -0.033558   0.361735  -0.036068   0.003355   0.000061
    12  H   -0.047436   0.374437  -0.049168   0.006571   0.000218   0.005722
               7          8          9         10         11         12
     1  C    0.353149  -0.045451   0.003275   0.000382   0.002989  -0.047436
     2  C   -0.036404   0.003921   0.000128   0.003638  -0.033558   0.374437
     3  C    0.003024   0.000540   0.004183  -0.035317   0.361735  -0.049168
     4  C    0.000258   0.002457  -0.038774   0.346561  -0.036068   0.006571
     5  C    0.002482  -0.028338   0.361960  -0.032469   0.003355   0.000218
     6  C   -0.029804   0.370385  -0.040214   0.002502   0.000061   0.005722
     7  H    0.622745  -0.002551  -0.000066   0.000007  -0.000082  -0.005528
     8  H   -0.002551   0.592910  -0.002173  -0.000067   0.000007  -0.000248
     9  H   -0.000066  -0.002173   0.626193  -0.005670  -0.000107   0.000004
    10  H    0.000007  -0.000067  -0.005670   0.639699  -0.003225  -0.000193
    11  H   -0.000082   0.000007  -0.000107  -0.003225   0.609801  -0.005327
    12  H   -0.005528  -0.000248   0.000004  -0.000193  -0.005327   0.639364
 Mulliken charges:
               1
     1  C   -0.100360
     2  C   -0.071558
     3  C   -0.094923
     4  C   -0.079097
     5  C   -0.108857
     6  C   -0.104000
     7  H    0.092770
     8  H    0.108608
     9  H    0.091262
    10  H    0.084153
    11  H    0.100420
    12  H    0.081582
 Sum of Mulliken charges =  -0.00000
 Mulliken charges with hydrogens summed into heavy atoms:
               1
     1  C   -0.007590
     2  C    0.010024
     3  C    0.005497
     4  C    0.005056
     5  C   -0.017595
     6  C    0.004608
 Electronic spatial extent (au):  <R**2>=            491.8073
 Charge=             -0.0000 electrons
 Dipole moment (field-independent basis, Debye):
    X=             -0.1107    Y=             -0.3080    Z=              0.4883  Tot=              0.5879
 Quadrupole moment (field-independent basis, Debye-Ang):
   XX=            -31.1528   YY=            -32.2428   ZZ=            -39.2131
   XY=             -0.1876   XZ=              0.6863   YZ=              0.2851
 Traceless Quadrupole moment (field-independent basis, Debye-Ang):
   XX=              3.0501   YY=              1.9601   ZZ=             -5.0102
   XY=             -0.1876   XZ=              0.6863   YZ=              0.2851
 Octapole moment (field-independent basis, Debye-Ang**2):
  XXX=             -2.0018  YYY=             -1.8611  ZZZ=              0.5564  XYY=             -0.4414
  XXY=             -2.0681  XXZ=              3.9872  XZZ=              0.5036  YZZ=             -0.2608
  YYZ=              0.7599  XYZ=              1.4361
 Hexadecapole moment (field-independent basis, Debye-Ang**3):
 XXXX=           -298.2215 YYYY=           -287.4464 ZZZZ=            -46.9612 XXXY=             -5.2496
 XXXZ=              4.1092 YYYX=              0.8501 YYYZ=              1.4374 ZZZX=              0.9792
 ZZZY=              0.6682 XXYY=            -97.1114 XXZZ=            -66.8421 YYZZ=            -64.2457
 XXYZ=              0.5185 YYXZ=              0.8927 ZZXY=              0.5797
 N-N= 1.945724934044D+02 E-N=-9.254132117747D+02  KE= 2.287692473755D+02
 1\1\GINC-DESKTOP-PRN5QE3\SP\RB3LYP TD-FC\6-31G(d,p)\C6H6\SHOHEI\10-Nov
 -2023\0\\# TD=(NStates=1) B3LYP/6-31G(d,p)\\EMISPCT\\0,1\C,0,0.3496745
 53,1.4273325015,-0.1170124988\C,0,1.3450886145,0.36289938,0.1322986217
 \C,0,1.0754291648,-1.0298612065,0.0071050723\C,0,-0.3649717323,-1.3773
 533915,-0.0935452358\C,0,-1.3568770696,-0.4373981589,0.1802700966\C,0,
 -1.0776706558,1.0580363478,-0.0404000544\H,0,0.8314189485,2.5204768049
 ,-0.3126292553\H,0,-1.6559351779,1.9449800222,-0.0327737372\H,0,-2.458
 8932296,-0.7585109913,0.0476361755\H,0,-0.6011030498,-2.4669702541,-0.
 6688556535\H,0,1.870737913,-1.8729740168,-0.1296096311\H,0,2.307949968
 3,0.6246605988,0.1571027487\\Version=EM64L-G16RevB.01\State=1-A\HF=-23
 2.1611218\RMSD=7.401e-09\PG=C01 [X(C6H6)]\\@


 MICHAEL FARADAY, ASKED BY A POLITICIAN WHAT GOOD
 HIS ELECTRICAL DISCOVERIES WERE, REPLIED 
 "AT PRESENT I DO NOT KNOW, BUT ONE DAY YOU WILL BE
 ABLE TO TAX THEM."
 Job cpu time:       0 days  0 hours  3 minutes  8.7 seconds.
 Elapsed time:       0 days  0 hours  0 minutes 47.8 seconds.
 File lengths (MBytes):  RWF=    116 Int=      0 D2E=      0 Chk=      3 Scr=      1
 Normal termination of Gaussian 16 at Fri Nov 10 22:15:37 2023.
