 Entering Gaussian System, Link 0=g16
 Input=Geometry-449-.com
 Output=Geometry-449-.log
 Initial command:
 /home/shohei/gaussian/g16/l1.exe "/home/shohei/gaussian/scratch/Gau-29583.inp" -scrdir="/home/shohei/gaussian/scratch/"
 Entering Link 1 = /home/shohei/gaussian/g16/l1.exe PID=     29585.
  
 Copyright (c) 1988-2017, Gaussian, Inc.  All Rights Reserved.
  
 This is part of the Gaussian(R) 16 program.  It is based on
 the Gaussian(R) 09 system (copyright 2009, Gaussian, Inc.),
 the Gaussian(R) 03 system (copyright 2003, Gaussian, Inc.),
 the Gaussian(R) 98 system (copyright 1998, Gaussian, Inc.),
 the Gaussian(R) 94 system (copyright 1995, Gaussian, Inc.),
 the Gaussian 92(TM) system (copyright 1992, Gaussian, Inc.),
 the Gaussian 90(TM) system (copyright 1990, Gaussian, Inc.),
 the Gaussian 88(TM) system (copyright 1988, Gaussian, Inc.),
 the Gaussian 86(TM) system (copyright 1986, Carnegie Mellon
 University), and the Gaussian 82(TM) system (copyright 1983,
 Carnegie Mellon University). Gaussian is a federally registered
 trademark of Gaussian, Inc.
  
 This software contains proprietary and confidential information,
 including trade secrets, belonging to Gaussian, Inc.
  
 This software is provided under written license and may be
 used, copied, transmitted, or stored only in accord with that
 written license.
  
 The following legend is applicable only to US Government
 contracts under FAR:
  
                    RESTRICTED RIGHTS LEGEND
  
 Use, reproduction and disclosure by the US Government is
 subject to restrictions as set forth in subparagraphs (a)
 and (c) of the Commercial Computer Software - Restricted
 Rights clause in FAR 52.227-19.
  
 Gaussian, Inc.
 340 Quinnipiac St., Bldg. 40, Wallingford CT 06492
  
  
 ---------------------------------------------------------------
 Warning -- This program may not be used in any manner that
 competes with the business of Gaussian, Inc. or will provide
 assistance to any competitor of Gaussian, Inc.  The licensee
 of this program is prohibited from giving any competitor of
 Gaussian, Inc. access to this program.  By using this program,
 the user acknowledges that Gaussian, Inc. is engaged in the
 business of creating and licensing software in the field of
 computational chemistry and represents and warrants to the
 licensee that it is not a competitor of Gaussian, Inc. and that
 it will not use this program in any manner prohibited above.
 ---------------------------------------------------------------
  

 Cite this work as:
 Gaussian 16, Revision B.01,
 M. J. Frisch, G. W. Trucks, H. B. Schlegel, G. E. Scuseria, 
 M. A. Robb, J. R. Cheeseman, G. Scalmani, V. Barone, 
 G. A. Petersson, H. Nakatsuji, X. Li, M. Caricato, A. V. Marenich, 
 J. Bloino, B. G. Janesko, R. Gomperts, B. Mennucci, H. P. Hratchian, 
 J. V. Ortiz, A. F. Izmaylov, J. L. Sonnenberg, D. Williams-Young, 
 F. Ding, F. Lipparini, F. Egidi, J. Goings, B. Peng, A. Petrone, 
 T. Henderson, D. Ranasinghe, V. G. Zakrzewski, J. Gao, N. Rega, 
 G. Zheng, W. Liang, M. Hada, M. Ehara, K. Toyota, R. Fukuda, 
 J. Hasegawa, M. Ishida, T. Nakajima, Y. Honda, O. Kitao, H. Nakai, 
 T. Vreven, K. Throssell, J. A. Montgomery, Jr., J. E. Peralta, 
 F. Ogliaro, M. J. Bearpark, J. J. Heyd, E. N. Brothers, K. N. Kudin, 
 V. N. Staroverov, T. A. Keith, R. Kobayashi, J. Normand, 
 K. Raghavachari, A. P. Rendell, J. C. Burant, S. S. Iyengar, 
 J. Tomasi, M. Cossi, J. M. Millam, M. Klene, C. Adamo, R. Cammi, 
 J. W. Ochterski, R. L. Martin, K. Morokuma, O. Farkas, 
 J. B. Foresman, and D. J. Fox, Gaussian, Inc., Wallingford CT, 2016.
 
 ******************************************
 Gaussian 16:  EM64L-G16RevB.01 20-Dec-2017
                10-Nov-2023 
 ******************************************
 %nproc=4
 Will use up to    4 processors via shared memory.
 %Mem=2Gb
 ---------------------------------
 # TD=(NStates=1) B3LYP/6-31G(d,p)
 ---------------------------------
 1/38=1,172=1/1;
 2/12=2,17=6,18=5,40=1/2;
 3/5=1,6=6,7=101,11=9,25=1,30=1,74=-5/1,2,3,8;
 4//1;
 5/5=2,38=5/2;
 8/6=1,10=2,108=1/1;
 9/41=1,42=1,70=2/14;
 6/7=2,8=2,9=2,10=2/1;
 99/5=1,9=1/99;
 -------
 EMISPCT
 -------
 Symbolic Z-matrix:
 Charge =  0 Multiplicity = 1
 6                     0.4042    1.46182  -0.00737 
 6                     1.32553   0.3281   -0.04398 
 6                     1.00041  -0.94206   0.1223 
 6                    -0.35035  -1.44007  -0.09783 
 6                    -1.35673  -0.43272  -0.05213 
 6                    -1.01471   1.02974   0.09604 
 1                     0.57157   2.52319  -0.26932 
 1                    -1.77373   1.86215   0.08404 
 1                    -2.47775  -0.81238   0.02113 
 1                    -0.5551   -2.52608   0.07431 
 1                     1.63908  -1.81053   0.13623 
 1                     2.46255   0.71545  -0.2793 
 
                          Input orientation:                          
 ---------------------------------------------------------------------
 Center     Atomic      Atomic             Coordinates (Angstroms)
 Number     Number       Type             X           Y           Z
 ---------------------------------------------------------------------
      1          6           0        0.404204    1.461820   -0.007368
      2          6           0        1.325528    0.328099   -0.043982
      3          6           0        1.000407   -0.942055    0.122305
      4          6           0       -0.350354   -1.440072   -0.097834
      5          6           0       -1.356728   -0.432717   -0.052126
      6          6           0       -1.014714    1.029741    0.096045
      7          1           0        0.571568    2.523188   -0.269320
      8          1           0       -1.773728    1.862152    0.084037
      9          1           0       -2.477745   -0.812380    0.021134
     10          1           0       -0.555099   -2.526079    0.074311
     11          1           0        1.639078   -1.810529    0.136232
     12          1           0        2.462549    0.715455   -0.279296
 ---------------------------------------------------------------------
                    Distance matrix (angstroms):
                    1          2          3          4          5
     1  C    0.000000
     2  C    1.461335   0.000000
     3  C    2.480098   1.321608   0.000000
     4  C    2.999752   2.436782   1.456377   0.000000
     5  C    2.586920   2.788082   2.417837   1.424655   0.000000
     6  C    1.486847   2.447170   2.819465   2.564944   1.509209
     7  H    1.105953   2.331876   3.513571   4.072686   3.535940
     8  H    2.216306   3.460505   3.944727   3.600521   2.336419
     9  H    3.671298   3.971123   3.482039   2.221249   1.185829
    10  H    4.102472   3.420100   2.220593   1.118467   2.245163
    11  H    3.500542   2.168991   1.078119   2.037121   3.302831
    12  H    2.206307   1.224024   2.246438   3.548471   3.994594
                    6          7          8          9         10
     6  C    0.000000
     7  H    2.209110   0.000000
     8  H    1.126568   2.462163   0.000000
     9  H    2.353611   4.528652   2.766355   0.000000
    10  H    3.585467   5.184839   4.554308   2.576075   0.000000
    11  H    3.887333   4.481645   5.013836   4.237662   2.308736
    12  H    3.511555   2.616067   4.403745   5.179870   4.442835
                   11         12
    11  H    0.000000
    12  H    2.689119   0.000000
 Stoichiometry    C6H6
 Framework group  C1[X(C6H6)]
 Deg. of freedom    30
 Full point group                 C1      NOp   1
 Largest Abelian subgroup         C1      NOp   1
 Largest concise Abelian subgroup C1      NOp   1
                         Standard orientation:                         
 ---------------------------------------------------------------------
 Center     Atomic      Atomic             Coordinates (Angstroms)
 Number     Number       Type             X           Y           Z
 ---------------------------------------------------------------------
      1          6           0       -1.514259   -0.100942   -0.009829
      2          6           0       -0.591447   -1.233426    0.027553
      3          6           0        0.719679   -1.171804   -0.126716
      4          6           0        1.479455    0.048281    0.108162
      5          6           0        0.697714    1.238454    0.063313
      6          6           0       -0.802347    1.201383   -0.098409
      7          1           0       -2.589787   -0.051100    0.242930
      8          1           0       -1.463497    2.113463   -0.086290
      9          1           0        1.297586    2.259528    0.002053
     10          1           0        2.585898    0.029453   -0.054308
     11          1           0        1.440576   -1.973355   -0.139500
     12          1           0       -1.203536   -2.269670    0.250669
 ---------------------------------------------------------------------
 Rotational constants (GHZ):           5.6139523           5.0881716           2.6873604
 Standard basis: 6-31G(d,p) (6D, 7F)
 There are   120 symmetry adapted cartesian basis functions of A   symmetry.
 There are   120 symmetry adapted basis functions of A   symmetry.
   120 basis functions,   210 primitive gaussians,   120 cartesian basis functions
    21 alpha electrons       21 beta electrons
       nuclear repulsion energy       196.9586831994 Hartrees.
 NAtoms=   12 NActive=   12 NUniq=   12 SFac= 1.00D+00 NAtFMM=   60 NAOKFM=F Big=F
 Integral buffers will be    131072 words long.
 Regular integral format.
 Two-electron integral symmetry is turned on.
 One-electron integrals computed using PRISM.
 NBasis=   120 RedAO= T EigKep=  1.13D-03  NBF=   120
 NBsUse=   120 1.00D-06 EigRej= -1.00D+00 NBFU=   120
 ExpMin= 1.61D-01 ExpMax= 3.05D+03 ExpMxC= 4.57D+02 IAcc=3 IRadAn=         5 AccDes= 0.00D+00
 Harris functional with IExCor=  402 and IRadAn=       5 diagonalized for initial guess.
 HarFok:  IExCor=  402 AccDes= 0.00D+00 IRadAn=         5 IDoV= 1 UseB2=F ITyADJ=14
 ICtDFT=  3500011 ScaDFX=  1.000000  1.000000  1.000000  1.000000
 FoFCou: FMM=F IPFlag=           0 FMFlag=      100000 FMFlg1=           0
         NFxFlg=           0 DoJE=T BraDBF=F KetDBF=T FulRan=T
         wScrn=  0.000000 ICntrl=       500 IOpCl=  0 I1Cent=   200000004 NGrid=           0
         NMat0=    1 NMatS0=      1 NMatT0=    0 NMatD0=    1 NMtDS0=    0 NMtDT0=    0
 Petite list used in FoFCou.
 Keep R1 ints in memory in canonical form, NReq=30147728.
 Requested convergence on RMS density matrix=1.00D-08 within 128 cycles.
 Requested convergence on MAX density matrix=1.00D-06.
 Requested convergence on             energy=1.00D-06.
 No special actions if energy rises.
 Integral accuracy reduced to 1.0D-05 until final iterations.
 Initial convergence to 1.0D-05 achieved.  Increase integral accuracy.
 SCF Done:  E(RB3LYP) =  -232.188923024     A.U. after   13 cycles
            NFock= 13  Conv=0.53D-08     -V/T= 2.0138
 DoSCS=F DFT=T ScalE2(SS,OS)=  1.000000  1.000000
 ExpMin= 1.61D-01 ExpMax= 3.05D+03 ExpMxC= 4.57D+02 IAcc=3 IRadAn=         5 AccDes= 0.00D+00
 HarFok:  IExCor=  205 AccDes= 0.00D+00 IRadAn=         5 IDoV=-2 UseB2=F ITyADJ=14
 ICtDFT= 12500011 ScaDFX=  1.000000  1.000000  1.000000  1.000000
 Range of M.O.s used for correlation:     7   120
 NBasis=   120 NAE=    21 NBE=    21 NFC=     6 NFV=     0
 NROrb=    114 NOA=    15 NOB=    15 NVA=    99 NVB=    99
 Keep R1, R2, and R3 ints in memory in canonical form, NReq=84032236.
 Orbital symmetries:
       Occupied  (A) (A) (A) (A) (A) (A) (A) (A) (A) (A) (A) (A)
                 (A) (A) (A) (A) (A) (A) (A) (A) (A)
       Virtual   (A) (A) (A) (A) (A) (A) (A) (A) (A) (A) (A) (A)
                 (A) (A) (A) (A) (A) (A) (A) (A) (A) (A) (A) (A)
                 (A) (A) (A) (A) (A) (A) (A) (A) (A) (A) (A) (A)
                 (A) (A) (A) (A) (A) (A) (A) (A) (A) (A) (A) (A)
                 (A) (A) (A) (A) (A) (A) (A) (A) (A) (A) (A) (A)
                 (A) (A) (A) (A) (A) (A) (A) (A) (A) (A) (A) (A)
                 (A) (A) (A) (A) (A) (A) (A) (A) (A) (A) (A) (A)
                 (A) (A) (A) (A) (A) (A) (A) (A) (A) (A) (A) (A)
                 (A) (A) (A)
     4 initial guesses have been made.
 Convergence on wavefunction:    0.001000000000000
 Iteration     1 Dimension     4 NMult     0 NNew      4
 CISAX will form     4 AO SS matrices at one time.
 New state      1 was old state      2
 Iteration     2 Dimension     6 NMult     4 NNew      2
 Iteration     3 Dimension     8 NMult     6 NNew      2
 Iteration     4 Dimension    10 NMult     8 NNew      2
 Iteration     5 Dimension    12 NMult    10 NNew      2
 Iteration     6 Dimension    14 NMult    12 NNew      2
 ***********************************************************************
 Excited states from <AA,BB:AA,BB> singles matrix:
 ***********************************************************************
 
 Ground to excited state transition densities written to RWF  633
 Ground to excited state transition electric dipole moments (Au):
       state          X           Y           Z        Dip. S.      Osc.
         1        -0.0919      0.2249      0.0011      0.0590      0.0071
 Ground to excited state transition velocity dipole moments (Au):
       state          X           Y           Z        Dip. S.      Osc.
         1         0.0172     -0.0407      0.0000      0.0020      0.0072
 Ground to excited state transition magnetic dipole moments (Au):
       state          X           Y           Z
         1         0.0211     -0.0003     -0.0191
 Ground to excited state transition velocity quadrupole moments (Au):
       state          XX          YY          ZZ          XY          XZ          YZ
         1         0.0339     -0.0002     -0.0139      0.0145      0.0253      0.0173
 <0|del|b> * <b|rxdel|0> + <0|del|b> * <b|delr+rdel|0>
 Rotatory Strengths (R) in cgs (10**-40 erg-esu-cm/Gauss)
       state          XX          YY          ZZ    R(velocity)    E-M Angle
         1         2.0488      1.2937     -1.8647      0.4926       72.57
 1/2[<0|r|b>*<b|rxdel|0> + (<0|rxdel|b>*<b|r|0>)*]
 Rotatory Strengths (R) in cgs (10**-40 erg-esu-cm/Gauss)
       state          XX          YY          ZZ     R(length)
         1         1.3679      0.0554      0.0144      0.4792
  1/2[<0|del|b>*<b|r|0> + (<0|r|b>*<b|del|0>)*] (Au)
       state          X           Y           Z        Dip. S.   Osc.(frdel)
         1        -0.0016     -0.0091      0.0000      0.0107      0.0072

 Excitation energies and oscillator strengths:
 
 Excited State   1:      Singlet-A      4.9016 eV  252.95 nm  f=0.0071  <S**2>=0.000
      20 -> 22         0.40461
      20 -> 23         0.27191
      21 -> 22         0.40995
      21 -> 23        -0.30471
 This state for optimization and/or second-order correction.
 Total Energy, E(TD-HF/TD-DFT) =  -232.008794139    
 Copying the excited state density for this state as the 1-particle RhoCI density.
 SavETr:  write IOETrn=   770 NScale= 10 NData=  16 NLR=1 NState=    1 LETran=      28.

 **********************************************************************

            Population analysis using the SCF Density.

 **********************************************************************

 Orbital symmetries:
       Occupied  (A) (A) (A) (A) (A) (A) (A) (A) (A) (A) (A) (A)
                 (A) (A) (A) (A) (A) (A) (A) (A) (A)
       Virtual   (A) (A) (A) (A) (A) (A) (A) (A) (A) (A) (A) (A)
                 (A) (A) (A) (A) (A) (A) (A) (A) (A) (A) (A) (A)
                 (A) (A) (A) (A) (A) (A) (A) (A) (A) (A) (A) (A)
                 (A) (A) (A) (A) (A) (A) (A) (A) (A) (A) (A) (A)
                 (A) (A) (A) (A) (A) (A) (A) (A) (A) (A) (A) (A)
                 (A) (A) (A) (A) (A) (A) (A) (A) (A) (A) (A) (A)
                 (A) (A) (A) (A) (A) (A) (A) (A) (A) (A) (A) (A)
                 (A) (A) (A) (A) (A) (A) (A) (A) (A) (A) (A) (A)
                 (A) (A) (A)
 The electronic state is 1-A.
 Alpha  occ. eigenvalues --  -10.21503 -10.21424 -10.21058 -10.20573 -10.20360
 Alpha  occ. eigenvalues --  -10.18959  -0.83224  -0.73096  -0.72624  -0.59214
 Alpha  occ. eigenvalues --   -0.58632  -0.49686  -0.45934  -0.44375  -0.40878
 Alpha  occ. eigenvalues --   -0.38736  -0.35964  -0.34867  -0.30882  -0.24343
 Alpha  occ. eigenvalues --   -0.24012
 Alpha virt. eigenvalues --   -0.02402  -0.00489   0.07236   0.11648   0.12593
 Alpha virt. eigenvalues --    0.13424   0.14427   0.16545   0.18495   0.26026
 Alpha virt. eigenvalues --    0.26983   0.27509   0.32986   0.46378   0.47105
 Alpha virt. eigenvalues --    0.50753   0.52782   0.53725   0.57937   0.58852
 Alpha virt. eigenvalues --    0.59488   0.60037   0.60369   0.62267   0.63729
 Alpha virt. eigenvalues --    0.65820   0.66337   0.72768   0.77320   0.78062
 Alpha virt. eigenvalues --    0.78995   0.81919   0.83729   0.88636   0.89230
 Alpha virt. eigenvalues --    0.92215   0.94676   1.00421   1.06924   1.08608
 Alpha virt. eigenvalues --    1.09678   1.12164   1.17713   1.25516   1.31085
 Alpha virt. eigenvalues --    1.33906   1.40120   1.46211   1.49119   1.53113
 Alpha virt. eigenvalues --    1.69041   1.69786   1.72965   1.77246   1.80110
 Alpha virt. eigenvalues --    1.86313   1.87927   1.91658   1.96169   1.97336
 Alpha virt. eigenvalues --    2.02113   2.02408   2.06661   2.18330   2.20312
 Alpha virt. eigenvalues --    2.21747   2.26562   2.31195   2.33421   2.35822
 Alpha virt. eigenvalues --    2.37804   2.40221   2.44716   2.45041   2.47451
 Alpha virt. eigenvalues --    2.48687   2.51263   2.53672   2.57121   2.60498
 Alpha virt. eigenvalues --    2.67406   2.69977   2.76688   2.83251   2.87190
 Alpha virt. eigenvalues --    3.03225   3.10170   3.13393   3.16737   3.23843
 Alpha virt. eigenvalues --    3.37984   3.50286   3.72872   4.07962   4.17192
 Alpha virt. eigenvalues --    4.18817   4.41933   4.43470   4.71499
          Condensed to atoms (all electrons):
               1          2          3          4          5          6
     1  C    4.900418   0.495517  -0.035593  -0.028446  -0.030237   0.508952
     2  C    0.495517   4.817348   0.585553  -0.033378  -0.038408  -0.040360
     3  C   -0.035593   0.585553   4.797910   0.493982  -0.042450  -0.031260
     4  C   -0.028446  -0.033378   0.493982   4.898789   0.526708  -0.032291
     5  C   -0.030237  -0.038408  -0.042450   0.526708   4.879311   0.500831
     6  C    0.508952  -0.040360  -0.031260  -0.032291   0.500831   4.902822
     7  H    0.369388  -0.029458   0.002896   0.000237   0.002995  -0.038971
     8  H   -0.041366   0.004549   0.000360   0.003043  -0.033765   0.360368
     9  H    0.002553   0.000484   0.004429  -0.040195   0.353170  -0.033810
    10  H    0.000322   0.004378  -0.036645   0.365050  -0.033769   0.002893
    11  H    0.004518  -0.040081   0.371359  -0.056623   0.006876   0.000286
    12  H   -0.047707   0.350281  -0.037564   0.004320   0.000230   0.004619
               7          8          9         10         11         12
     1  C    0.369388  -0.041366   0.002553   0.000322   0.004518  -0.047707
     2  C   -0.029458   0.004549   0.000484   0.004378  -0.040081   0.350281
     3  C    0.002896   0.000360   0.004429  -0.036645   0.371359  -0.037564
     4  C    0.000237   0.003043  -0.040195   0.365050  -0.056623   0.004320
     5  C    0.002995  -0.033765   0.353170  -0.033769   0.006876   0.000230
     6  C   -0.038971   0.360368  -0.033810   0.002893   0.000286   0.004619
     7  H    0.591456  -0.003668  -0.000089   0.000007  -0.000083  -0.004098
     8  H   -0.003668   0.621843  -0.002931  -0.000070   0.000008  -0.000174
     9  H   -0.000089  -0.002931   0.638553  -0.004318  -0.000269   0.000009
    10  H    0.000007  -0.000070  -0.004318   0.607780  -0.006639  -0.000119
    11  H   -0.000083   0.000008  -0.000269  -0.006639   0.638383  -0.007277
    12  H   -0.004098  -0.000174   0.000009  -0.000119  -0.007277   0.667279
 Mulliken charges:
               1
     1  C   -0.098317
     2  C   -0.076424
     3  C   -0.072979
     4  C   -0.101196
     5  C   -0.091490
     6  C   -0.104077
     7  H    0.109388
     8  H    0.091805
     9  H    0.082414
    10  H    0.101129
    11  H    0.089544
    12  H    0.070203
 Sum of Mulliken charges =  -0.00000
 Mulliken charges with hydrogens summed into heavy atoms:
               1
     1  C    0.011071
     2  C   -0.006221
     3  C    0.016566
     4  C   -0.000067
     5  C   -0.009076
     6  C   -0.012272
 Electronic spatial extent (au):  <R**2>=            483.2364
 Charge=             -0.0000 electrons
 Dipole moment (field-independent basis, Debye):
    X=              0.0300    Y=              0.0883    Z=              0.1201  Tot=              0.1521
 Quadrupole moment (field-independent basis, Debye-Ang):
   XX=            -30.1418   YY=            -33.2574   ZZ=            -39.2219
   XY=             -0.5872   XZ=             -1.0236   YZ=             -0.3293
 Traceless Quadrupole moment (field-independent basis, Debye-Ang):
   XX=              4.0652   YY=              0.9496   ZZ=             -5.0149
   XY=             -0.5872   XZ=             -1.0236   YZ=             -0.3293
 Octapole moment (field-independent basis, Debye-Ang**2):
  XXX=              0.0656  YYY=              1.6098  ZZZ=              0.0956  XYY=              0.2001
  XXY=              0.2977  XXZ=              0.9291  XZZ=              0.0560  YZZ=             -0.5790
  YYZ=              0.2638  XYZ=              0.7229
 Hexadecapole moment (field-independent basis, Debye-Ang**3):
 XXXX=           -287.6259 YYYY=           -289.6760 ZZZZ=            -43.3762 XXXY=             -5.0223
 XXXZ=             -6.9459 YYYX=             -1.3090 YYYZ=             -2.2079 ZZZX=             -1.0814
 ZZZY=             -0.1598 XXYY=            -95.2863 XXZZ=            -66.8400 YYZZ=            -62.9895
 XXYZ=             -0.5995 YYXZ=             -1.6477 ZZXY=             -0.4574
 N-N= 1.969586831994D+02 E-N=-9.304164256902D+02  KE= 2.290272840869D+02
 1\1\GINC-DESKTOP-PRN5QE3\SP\RB3LYP TD-FC\6-31G(d,p)\C6H6\SHOHEI\10-Nov
 -2023\0\\# TD=(NStates=1) B3LYP/6-31G(d,p)\\EMISPCT\\0,1\C,0,0.4042041
 651,1.4618196641,-0.0073682552\C,0,1.3255276298,0.3280993852,-0.043981
 5752\C,0,1.0004067278,-0.9420552537,0.1223049226\C,0,-0.3503536545,-1.
 4400715205,-0.0978336818\C,0,-1.3567279009,-0.4327174758,-0.0521256351
 \C,0,-1.0147139436,1.0297408271,0.0960449701\H,0,0.5715681482,2.523187
 5508,-0.2693198268\H,0,-1.7737283989,1.8621520127,0.0840373195\H,0,-2.
 4777453906,-0.8123802487,0.0211341967\H,0,-0.5550993707,-2.5260793435,
 0.0743114609\H,0,1.6390778229,-1.8105286647,0.1362315352\H,0,2.4625492
 464,0.7154548743,-0.2792955391\\Version=EM64L-G16RevB.01\State=1-A\HF=
 -232.188923\RMSD=5.288e-09\PG=C01 [X(C6H6)]\\@


 Children are likely to live up to what you believe of them.
 -- Lady Bird Johnson
 Job cpu time:       0 days  0 hours  3 minutes 31.2 seconds.
 Elapsed time:       0 days  0 hours  0 minutes 53.5 seconds.
 File lengths (MBytes):  RWF=    116 Int=      0 D2E=      0 Chk=      3 Scr=      1
 Normal termination of Gaussian 16 at Fri Nov 10 22:20:21 2023.
