 Entering Gaussian System, Link 0=g16
 Input=Geometry-372-.com
 Output=Geometry-372-.log
 Initial command:
 /home/shohei/gaussian/g16/l1.exe "/home/shohei/gaussian/scratch/Gau-22993.inp" -scrdir="/home/shohei/gaussian/scratch/"
 Entering Link 1 = /home/shohei/gaussian/g16/l1.exe PID=     22995.
  
 Copyright (c) 1988-2017, Gaussian, Inc.  All Rights Reserved.
  
 This is part of the Gaussian(R) 16 program.  It is based on
 the Gaussian(R) 09 system (copyright 2009, Gaussian, Inc.),
 the Gaussian(R) 03 system (copyright 2003, Gaussian, Inc.),
 the Gaussian(R) 98 system (copyright 1998, Gaussian, Inc.),
 the Gaussian(R) 94 system (copyright 1995, Gaussian, Inc.),
 the Gaussian 92(TM) system (copyright 1992, Gaussian, Inc.),
 the Gaussian 90(TM) system (copyright 1990, Gaussian, Inc.),
 the Gaussian 88(TM) system (copyright 1988, Gaussian, Inc.),
 the Gaussian 86(TM) system (copyright 1986, Carnegie Mellon
 University), and the Gaussian 82(TM) system (copyright 1983,
 Carnegie Mellon University). Gaussian is a federally registered
 trademark of Gaussian, Inc.
  
 This software contains proprietary and confidential information,
 including trade secrets, belonging to Gaussian, Inc.
  
 This software is provided under written license and may be
 used, copied, transmitted, or stored only in accord with that
 written license.
  
 The following legend is applicable only to US Government
 contracts under FAR:
  
                    RESTRICTED RIGHTS LEGEND
  
 Use, reproduction and disclosure by the US Government is
 subject to restrictions as set forth in subparagraphs (a)
 and (c) of the Commercial Computer Software - Restricted
 Rights clause in FAR 52.227-19.
  
 Gaussian, Inc.
 340 Quinnipiac St., Bldg. 40, Wallingford CT 06492
  
  
 ---------------------------------------------------------------
 Warning -- This program may not be used in any manner that
 competes with the business of Gaussian, Inc. or will provide
 assistance to any competitor of Gaussian, Inc.  The licensee
 of this program is prohibited from giving any competitor of
 Gaussian, Inc. access to this program.  By using this program,
 the user acknowledges that Gaussian, Inc. is engaged in the
 business of creating and licensing software in the field of
 computational chemistry and represents and warrants to the
 licensee that it is not a competitor of Gaussian, Inc. and that
 it will not use this program in any manner prohibited above.
 ---------------------------------------------------------------
  

 Cite this work as:
 Gaussian 16, Revision B.01,
 M. J. Frisch, G. W. Trucks, H. B. Schlegel, G. E. Scuseria, 
 M. A. Robb, J. R. Cheeseman, G. Scalmani, V. Barone, 
 G. A. Petersson, H. Nakatsuji, X. Li, M. Caricato, A. V. Marenich, 
 J. Bloino, B. G. Janesko, R. Gomperts, B. Mennucci, H. P. Hratchian, 
 J. V. Ortiz, A. F. Izmaylov, J. L. Sonnenberg, D. Williams-Young, 
 F. Ding, F. Lipparini, F. Egidi, J. Goings, B. Peng, A. Petrone, 
 T. Henderson, D. Ranasinghe, V. G. Zakrzewski, J. Gao, N. Rega, 
 G. Zheng, W. Liang, M. Hada, M. Ehara, K. Toyota, R. Fukuda, 
 J. Hasegawa, M. Ishida, T. Nakajima, Y. Honda, O. Kitao, H. Nakai, 
 T. Vreven, K. Throssell, J. A. Montgomery, Jr., J. E. Peralta, 
 F. Ogliaro, M. J. Bearpark, J. J. Heyd, E. N. Brothers, K. N. Kudin, 
 V. N. Staroverov, T. A. Keith, R. Kobayashi, J. Normand, 
 K. Raghavachari, A. P. Rendell, J. C. Burant, S. S. Iyengar, 
 J. Tomasi, M. Cossi, J. M. Millam, M. Klene, C. Adamo, R. Cammi, 
 J. W. Ochterski, R. L. Martin, K. Morokuma, O. Farkas, 
 J. B. Foresman, and D. J. Fox, Gaussian, Inc., Wallingford CT, 2016.
 
 ******************************************
 Gaussian 16:  EM64L-G16RevB.01 20-Dec-2017
                10-Nov-2023 
 ******************************************
 %nproc=4
 Will use up to    4 processors via shared memory.
 %Mem=2Gb
 ---------------------------------
 # TD=(NStates=1) B3LYP/6-31G(d,p)
 ---------------------------------
 1/38=1,172=1/1;
 2/12=2,17=6,18=5,40=1/2;
 3/5=1,6=6,7=101,11=9,25=1,30=1,74=-5/1,2,3,8;
 4//1;
 5/5=2,38=5/2;
 8/6=1,10=2,108=1/1;
 9/41=1,42=1,70=2/14;
 6/7=2,8=2,9=2,10=2/1;
 99/5=1,9=1/99;
 -------
 EMISPCT
 -------
 Symbolic Z-matrix:
 Charge =  0 Multiplicity = 1
 6                     0.34978   1.45238   0.18241 
 6                     1.3343    0.35865  -0.16114 
 6                     0.99455  -0.99285   0.0532 
 6                    -0.31861  -1.42904   0.02932 
 6                    -1.36052  -0.40492  -0.03168 
 6                    -0.98758   0.99939  -0.07439 
 1                     0.65895   2.24767   0.25658 
 1                    -1.81921   1.64831  -0.20518 
 1                    -2.49173  -0.39038  -0.09185 
 1                    -0.6732   -2.37219   0.35899 
 1                     1.80803  -1.73435  -0.14405 
 1                     2.36632   0.78128  -0.14338 
 
                          Input orientation:                          
 ---------------------------------------------------------------------
 Center     Atomic      Atomic             Coordinates (Angstroms)
 Number     Number       Type             X           Y           Z
 ---------------------------------------------------------------------
      1          6           0        0.349784    1.452380    0.182409
      2          6           0        1.334300    0.358646   -0.161138
      3          6           0        0.994554   -0.992846    0.053205
      4          6           0       -0.318606   -1.429044    0.029320
      5          6           0       -1.360516   -0.404919   -0.031676
      6          6           0       -0.987578    0.999390   -0.074395
      7          1           0        0.658950    2.247675    0.256575
      8          1           0       -1.819205    1.648311   -0.205181
      9          1           0       -2.491734   -0.390378   -0.091851
     10          1           0       -0.673195   -2.372186    0.358987
     11          1           0        1.808032   -1.734345   -0.144048
     12          1           0        2.366323    0.781285   -0.143381
 ---------------------------------------------------------------------
                    Distance matrix (angstroms):
                    1          2          3          4          5
     1  C    0.000000
     2  C    1.511142   0.000000
     3  C    2.532104   1.409929   0.000000
     4  C    2.961889   2.442173   1.383917   0.000000
     5  C    2.533874   2.803894   2.428830   1.462235   0.000000
     6  C    1.435160   2.410227   2.813207   2.521027   1.453614
     7  H    0.856492   2.049149   3.264194   3.811237   3.346279
     8  H    2.212042   3.407311   3.867779   3.431750   2.110984
     9  H    3.397823   3.899279   3.540934   2.411638   1.132911
    10  H    3.962950   3.428995   2.185742   1.060155   2.120181
    11  H    3.519699   2.146003   1.118248   2.155424   3.437979
    12  H    2.150102   1.115352   2.251208   3.481985   3.912657
                    6          7          8          9         10
     6  C    0.000000
     7  H    2.092560   0.000000
     8  H    1.062924   2.591082   0.000000
     9  H    2.047986   4.124019   2.149743   0.000000
    10  H    3.413822   4.809180   4.218533   2.727251   0.000000
    11  H    3.910703   4.163817   4.960136   4.505215   2.610819
    12  H    3.361693   2.285911   4.274833   4.997616   4.408562
                   11         12
    11  H    0.000000
    12  H    2.576836   0.000000
 Stoichiometry    C6H6
 Framework group  C1[X(C6H6)]
 Deg. of freedom    30
 Full point group                 C1      NOp   1
 Largest Abelian subgroup         C1      NOp   1
 Largest concise Abelian subgroup C1      NOp   1
                         Standard orientation:                         
 ---------------------------------------------------------------------
 Center     Atomic      Atomic             Coordinates (Angstroms)
 Number     Number       Type             X           Y           Z
 ---------------------------------------------------------------------
      1          6           0        1.417331   -0.466094    0.185639
      2          6           0        0.249416   -1.360452   -0.160263
      3          6           0       -1.071198   -0.913930    0.050678
      4          6           0       -1.401256    0.429813    0.025316
      5          6           0       -0.297179    1.386727   -0.033511
      6          6           0        1.073025    0.902995   -0.072689
      7          1           0        2.185265   -0.837643    0.261842
      8          1           0        1.786496    1.680173   -0.202154
      9          1           0       -0.192352    2.513154   -0.094006
     10          1           0       -2.313915    0.858634    0.352571
     11          1           0       -1.874717   -1.665803   -0.148126
     12          1           0        0.588386   -2.422876   -0.141151
 ---------------------------------------------------------------------
 Rotational constants (GHZ):           5.5915308           5.2881621           2.7510089
 Standard basis: 6-31G(d,p) (6D, 7F)
 There are   120 symmetry adapted cartesian basis functions of A   symmetry.
 There are   120 symmetry adapted basis functions of A   symmetry.
   120 basis functions,   210 primitive gaussians,   120 cartesian basis functions
    21 alpha electrons       21 beta electrons
       nuclear repulsion energy       199.6655726037 Hartrees.
 NAtoms=   12 NActive=   12 NUniq=   12 SFac= 1.00D+00 NAtFMM=   60 NAOKFM=F Big=F
 Integral buffers will be    131072 words long.
 Regular integral format.
 Two-electron integral symmetry is turned on.
 One-electron integrals computed using PRISM.
 NBasis=   120 RedAO= T EigKep=  1.80D-03  NBF=   120
 NBsUse=   120 1.00D-06 EigRej= -1.00D+00 NBFU=   120
 ExpMin= 1.61D-01 ExpMax= 3.05D+03 ExpMxC= 4.57D+02 IAcc=3 IRadAn=         5 AccDes= 0.00D+00
 Harris functional with IExCor=  402 and IRadAn=       5 diagonalized for initial guess.
 HarFok:  IExCor=  402 AccDes= 0.00D+00 IRadAn=         5 IDoV= 1 UseB2=F ITyADJ=14
 ICtDFT=  3500011 ScaDFX=  1.000000  1.000000  1.000000  1.000000
 FoFCou: FMM=F IPFlag=           0 FMFlag=      100000 FMFlg1=           0
         NFxFlg=           0 DoJE=T BraDBF=F KetDBF=T FulRan=T
         wScrn=  0.000000 ICntrl=       500 IOpCl=  0 I1Cent=   200000004 NGrid=           0
         NMat0=    1 NMatS0=      1 NMatT0=    0 NMatD0=    1 NMtDS0=    0 NMtDT0=    0
 Petite list used in FoFCou.
 Keep R1 ints in memory in canonical form, NReq=30147728.
 Requested convergence on RMS density matrix=1.00D-08 within 128 cycles.
 Requested convergence on MAX density matrix=1.00D-06.
 Requested convergence on             energy=1.00D-06.
 No special actions if energy rises.
 Integral accuracy reduced to 1.0D-05 until final iterations.
 Initial convergence to 1.0D-05 achieved.  Increase integral accuracy.
 SCF Done:  E(RB3LYP) =  -232.143801794     A.U. after   13 cycles
            NFock= 13  Conv=0.62D-08     -V/T= 2.0102
 DoSCS=F DFT=T ScalE2(SS,OS)=  1.000000  1.000000
 ExpMin= 1.61D-01 ExpMax= 3.05D+03 ExpMxC= 4.57D+02 IAcc=3 IRadAn=         5 AccDes= 0.00D+00
 HarFok:  IExCor=  205 AccDes= 0.00D+00 IRadAn=         5 IDoV=-2 UseB2=F ITyADJ=14
 ICtDFT= 12500011 ScaDFX=  1.000000  1.000000  1.000000  1.000000
 Range of M.O.s used for correlation:     7   120
 NBasis=   120 NAE=    21 NBE=    21 NFC=     6 NFV=     0
 NROrb=    114 NOA=    15 NOB=    15 NVA=    99 NVB=    99
 Keep R1, R2, and R3 ints in memory in canonical form, NReq=84032236.
 Orbital symmetries:
       Occupied  (A) (A) (A) (A) (A) (A) (A) (A) (A) (A) (A) (A)
                 (A) (A) (A) (A) (A) (A) (A) (A) (A)
       Virtual   (A) (A) (A) (A) (A) (A) (A) (A) (A) (A) (A) (A)
                 (A) (A) (A) (A) (A) (A) (A) (A) (A) (A) (A) (A)
                 (A) (A) (A) (A) (A) (A) (A) (A) (A) (A) (A) (A)
                 (A) (A) (A) (A) (A) (A) (A) (A) (A) (A) (A) (A)
                 (A) (A) (A) (A) (A) (A) (A) (A) (A) (A) (A) (A)
                 (A) (A) (A) (A) (A) (A) (A) (A) (A) (A) (A) (A)
                 (A) (A) (A) (A) (A) (A) (A) (A) (A) (A) (A) (A)
                 (A) (A) (A) (A) (A) (A) (A) (A) (A) (A) (A) (A)
                 (A) (A) (A)
     4 initial guesses have been made.
 Convergence on wavefunction:    0.001000000000000
 Iteration     1 Dimension     4 NMult     0 NNew      4
 CISAX will form     4 AO SS matrices at one time.
 New state      1 was old state      2
 Iteration     2 Dimension     6 NMult     4 NNew      2
 Iteration     3 Dimension     8 NMult     6 NNew      2
 Iteration     4 Dimension    10 NMult     8 NNew      2
 Iteration     5 Dimension    12 NMult    10 NNew      2
 Iteration     6 Dimension    14 NMult    12 NNew      2
 ***********************************************************************
 Excited states from <AA,BB:AA,BB> singles matrix:
 ***********************************************************************
 
 Ground to excited state transition densities written to RWF  633
 Ground to excited state transition electric dipole moments (Au):
       state          X           Y           Z        Dip. S.      Osc.
         1         0.0818      0.2559      0.0161      0.0724      0.0085
 Ground to excited state transition velocity dipole moments (Au):
       state          X           Y           Z        Dip. S.      Osc.
         1        -0.0146     -0.0459     -0.0028      0.0023      0.0088
 Ground to excited state transition magnetic dipole moments (Au):
       state          X           Y           Z
         1        -0.0146      0.0282      0.0624
 Ground to excited state transition velocity quadrupole moments (Au):
       state          XX          YY          ZZ          XY          XZ          YZ
         1         0.0376     -0.0175     -0.0025     -0.0052      0.0185      0.0434
 <0|del|b> * <b|rxdel|0> + <0|del|b> * <b|delr+rdel|0>
 Rotatory Strengths (R) in cgs (10**-40 erg-esu-cm/Gauss)
       state          XX          YY          ZZ    R(velocity)    E-M Angle
         1        -1.2049     -1.2186     -2.5913     -1.6716      111.82
 1/2[<0|r|b>*<b|rxdel|0> + (<0|rxdel|b>*<b|r|0>)*]
 Rotatory Strengths (R) in cgs (10**-40 erg-esu-cm/Gauss)
       state          XX          YY          ZZ     R(length)
         1         0.8426     -5.1049     -0.7099     -1.6574
  1/2[<0|del|b>*<b|r|0> + (<0|r|b>*<b|del|0>)*] (Au)
       state          X           Y           Z        Dip. S.   Osc.(frdel)
         1        -0.0012     -0.0117     -0.0000      0.0130      0.0087

 Excitation energies and oscillator strengths:
 
 Excited State   1:      Singlet-A      4.8140 eV  257.55 nm  f=0.0085  <S**2>=0.000
      20 -> 22         0.42383
      20 -> 23         0.20292
      21 -> 22         0.38875
      21 -> 23        -0.35661
 This state for optimization and/or second-order correction.
 Total Energy, E(TD-HF/TD-DFT) =  -231.966892045    
 Copying the excited state density for this state as the 1-particle RhoCI density.
 SavETr:  write IOETrn=   770 NScale= 10 NData=  16 NLR=1 NState=    1 LETran=      28.

 **********************************************************************

            Population analysis using the SCF Density.

 **********************************************************************

 Orbital symmetries:
       Occupied  (A) (A) (A) (A) (A) (A) (A) (A) (A) (A) (A) (A)
                 (A) (A) (A) (A) (A) (A) (A) (A) (A)
       Virtual   (A) (A) (A) (A) (A) (A) (A) (A) (A) (A) (A) (A)
                 (A) (A) (A) (A) (A) (A) (A) (A) (A) (A) (A) (A)
                 (A) (A) (A) (A) (A) (A) (A) (A) (A) (A) (A) (A)
                 (A) (A) (A) (A) (A) (A) (A) (A) (A) (A) (A) (A)
                 (A) (A) (A) (A) (A) (A) (A) (A) (A) (A) (A) (A)
                 (A) (A) (A) (A) (A) (A) (A) (A) (A) (A) (A) (A)
                 (A) (A) (A) (A) (A) (A) (A) (A) (A) (A) (A) (A)
                 (A) (A) (A) (A) (A) (A) (A) (A) (A) (A) (A) (A)
                 (A) (A) (A)
 The electronic state is 1-A.
 Alpha  occ. eigenvalues --  -10.20180 -10.20172 -10.19794 -10.19655 -10.19499
 Alpha  occ. eigenvalues --  -10.18413  -0.83207  -0.74560  -0.72693  -0.62050
 Alpha  occ. eigenvalues --   -0.58237  -0.51933  -0.48457  -0.43152  -0.41900
 Alpha  occ. eigenvalues --   -0.39819  -0.35927  -0.34027  -0.31778  -0.24590
 Alpha  occ. eigenvalues --   -0.23347
 Alpha virt. eigenvalues --   -0.02617  -0.00356   0.09242   0.11541   0.13258
 Alpha virt. eigenvalues --    0.15873   0.16839   0.18207   0.21030   0.25726
 Alpha virt. eigenvalues --    0.27878   0.29274   0.32179   0.42728   0.46606
 Alpha virt. eigenvalues --    0.49082   0.53208   0.53895   0.57130   0.59418
 Alpha virt. eigenvalues --    0.60001   0.60928   0.61078   0.62840   0.64882
 Alpha virt. eigenvalues --    0.65836   0.66832   0.70127   0.74153   0.80184
 Alpha virt. eigenvalues --    0.83246   0.85279   0.86079   0.88534   0.92166
 Alpha virt. eigenvalues --    0.93885   0.96139   1.02559   1.03597   1.05999
 Alpha virt. eigenvalues --    1.09883   1.12549   1.19752   1.25510   1.32697
 Alpha virt. eigenvalues --    1.37163   1.42631   1.44056   1.52368   1.55147
 Alpha virt. eigenvalues --    1.70394   1.72570   1.74013   1.79596   1.87519
 Alpha virt. eigenvalues --    1.88841   1.92252   1.94213   1.96994   1.99920
 Alpha virt. eigenvalues --    2.01667   2.02927   2.07235   2.14902   2.22816
 Alpha virt. eigenvalues --    2.25019   2.30828   2.34835   2.37811   2.40572
 Alpha virt. eigenvalues --    2.44557   2.45495   2.46591   2.47217   2.53251
 Alpha virt. eigenvalues --    2.53928   2.56048   2.57224   2.57840   2.62901
 Alpha virt. eigenvalues --    2.74754   2.79870   2.84276   2.95670   3.00406
 Alpha virt. eigenvalues --    3.06268   3.19846   3.32201   3.35727   3.39978
 Alpha virt. eigenvalues --    3.47638   3.68097   4.10449   4.16528   4.17517
 Alpha virt. eigenvalues --    4.30055   4.44104   4.50248   4.75760
          Condensed to atoms (all electrons):
               1          2          3          4          5          6
     1  C    4.771771   0.503114  -0.031087  -0.030851  -0.032031   0.538092
     2  C    0.503114   4.912458   0.533935  -0.039970  -0.037118  -0.029567
     3  C   -0.031087   0.533935   4.823022   0.530979  -0.038967  -0.036911
     4  C   -0.030851  -0.039970   0.530979   4.838199   0.521424  -0.039534
     5  C   -0.032031  -0.037118  -0.038967   0.521424   4.880898   0.517309
     6  C    0.538092  -0.029567  -0.036911  -0.039534   0.517309   4.866315
     7  H    0.375997  -0.050496   0.005635   0.001025   0.005971  -0.051884
     8  H   -0.047105   0.004818   0.000677   0.005229  -0.045248   0.366859
     9  H    0.004898   0.000434   0.003215  -0.029069   0.363217  -0.049027
    10  H    0.000360   0.004221  -0.040711   0.373008  -0.045165   0.004316
    11  H    0.004197  -0.045419   0.369673  -0.043973   0.004047   0.000315
    12  H   -0.048995   0.359667  -0.033206   0.004163   0.000637   0.005115
               7          8          9         10         11         12
     1  C    0.375997  -0.047105   0.004898   0.000360   0.004197  -0.048995
     2  C   -0.050496   0.004818   0.000434   0.004221  -0.045419   0.359667
     3  C    0.005635   0.000677   0.003215  -0.040711   0.369673  -0.033206
     4  C    0.001025   0.005229  -0.029069   0.373008  -0.043973   0.004163
     5  C    0.005971  -0.045248   0.363217  -0.045165   0.004047   0.000637
     6  C   -0.051884   0.366859  -0.049027   0.004316   0.000315   0.005115
     7  H    0.687023  -0.005063  -0.000269   0.000028  -0.000261  -0.006677
     8  H   -0.005063   0.650119  -0.010633  -0.000236   0.000017  -0.000233
     9  H   -0.000269  -0.010633   0.627014  -0.002660  -0.000109   0.000006
    10  H    0.000028  -0.000236  -0.002660   0.612638  -0.005103  -0.000121
    11  H   -0.000261   0.000017  -0.000109  -0.005103   0.632611  -0.006245
    12  H   -0.006677  -0.000233   0.000006  -0.000121  -0.006245   0.640618
 Mulliken charges:
               1
     1  C   -0.008362
     2  C   -0.116077
     3  C   -0.086254
     4  C   -0.090629
     5  C   -0.094974
     6  C   -0.091398
     7  H    0.038970
     8  H    0.080799
     9  H    0.092981
    10  H    0.099425
    11  H    0.090249
    12  H    0.085271
 Sum of Mulliken charges =  -0.00000
 Mulliken charges with hydrogens summed into heavy atoms:
               1
     1  C    0.030609
     2  C   -0.030806
     3  C    0.003995
     4  C    0.008795
     5  C   -0.001993
     6  C   -0.010600
 Electronic spatial extent (au):  <R**2>=            470.7624
 Charge=             -0.0000 electrons
 Dipole moment (field-independent basis, Debye):
    X=              0.2953    Y=              0.0500    Z=              0.0859  Tot=              0.3116
 Quadrupole moment (field-independent basis, Debye-Ang):
   XX=            -31.7166   YY=            -31.5003   ZZ=            -38.5757
   XY=             -0.1940   XZ=             -0.2185   YZ=              0.0773
 Traceless Quadrupole moment (field-independent basis, Debye-Ang):
   XX=              2.2143   YY=              2.4305   ZZ=             -4.6448
   XY=             -0.1940   XZ=             -0.2185   YZ=              0.0773
 Octapole moment (field-independent basis, Debye-Ang**2):
  XXX=              1.2029  YYY=              1.5101  ZZZ=              0.3987  XYY=              2.4713
  XXY=             -1.1712  XXZ=              1.7085  XZZ=              0.4434  YZZ=             -0.1047
  YYZ=             -0.9801  XYZ=             -1.7039
 Hexadecapole moment (field-independent basis, Debye-Ang**3):
 XXXX=           -283.2233 YYYY=           -275.6041 ZZZZ=            -43.9138 XXXY=             -3.6441
 XXXZ=             -1.2756 YYYX=              1.0990 YYYZ=             -0.2679 ZZZX=             -0.0034
 ZZZY=             -0.1015 XXYY=            -92.2390 XXZZ=            -61.0802 YYZZ=            -62.1148
 XXYZ=              0.7361 YYXZ=             -0.3878 ZZXY=             -0.4974
 N-N= 1.996655726037D+02 E-N=-9.363349541172D+02  KE= 2.297890816539D+02
 1\1\GINC-DESKTOP-PRN5QE3\SP\RB3LYP TD-FC\6-31G(d,p)\C6H6\SHOHEI\10-Nov
 -2023\0\\# TD=(NStates=1) B3LYP/6-31G(d,p)\\EMISPCT\\0,1\C,0,0.3497840
 191,1.4523803214,0.1824085771\C,0,1.3342998407,0.3586460915,-0.1611383
 792\C,0,0.9945538392,-0.9928456792,0.0532045943\C,0,-0.3186056387,-1.4
 290443927,0.0293197213\C,0,-1.3605157227,-0.4049188142,-0.0316763207\C
 ,0,-0.9875775401,0.9993904802,-0.0743946219\H,0,0.6589497976,2.2476749
 358,0.2565752834\H,0,-1.8192050828,1.648311343,-0.2051808854\H,0,-2.49
 17340062,-0.3903780992,-0.0918509112\H,0,-0.6731952929,-2.372185657,0.
 358986564\H,0,1.8080321503,-1.7343454248,-0.1440481301\H,0,2.366323035
 ,0.7812847596,-0.1433813899\\Version=EM64L-G16RevB.01\State=1-A\HF=-23
 2.1438018\RMSD=6.178e-09\PG=C01 [X(C6H6)]\\@


 THE MOST INCOMPREHENSIBLE THING ABOUT THE WORLD
 IS THAT IT IS COMPREHENSIBLE. -- A. EINSTEIN
 Job cpu time:       0 days  0 hours  3 minutes 37.7 seconds.
 Elapsed time:       0 days  0 hours  0 minutes 55.0 seconds.
 File lengths (MBytes):  RWF=    116 Int=      0 D2E=      0 Chk=      3 Scr=      1
 Normal termination of Gaussian 16 at Fri Nov 10 21:16:02 2023.
