 Entering Gaussian System, Link 0=g16
 Input=Geometry-46-.com
 Output=Geometry-46-.log
 Initial command:
 /home/shohei/gaussian/g16/l1.exe "/home/shohei/gaussian/scratch/Gau-16394.inp" -scrdir="/home/shohei/gaussian/scratch/"
 Entering Link 1 = /home/shohei/gaussian/g16/l1.exe PID=     16396.
  
 Copyright (c) 1988-2017, Gaussian, Inc.  All Rights Reserved.
  
 This is part of the Gaussian(R) 16 program.  It is based on
 the Gaussian(R) 09 system (copyright 2009, Gaussian, Inc.),
 the Gaussian(R) 03 system (copyright 2003, Gaussian, Inc.),
 the Gaussian(R) 98 system (copyright 1998, Gaussian, Inc.),
 the Gaussian(R) 94 system (copyright 1995, Gaussian, Inc.),
 the Gaussian 92(TM) system (copyright 1992, Gaussian, Inc.),
 the Gaussian 90(TM) system (copyright 1990, Gaussian, Inc.),
 the Gaussian 88(TM) system (copyright 1988, Gaussian, Inc.),
 the Gaussian 86(TM) system (copyright 1986, Carnegie Mellon
 University), and the Gaussian 82(TM) system (copyright 1983,
 Carnegie Mellon University). Gaussian is a federally registered
 trademark of Gaussian, Inc.
  
 This software contains proprietary and confidential information,
 including trade secrets, belonging to Gaussian, Inc.
  
 This software is provided under written license and may be
 used, copied, transmitted, or stored only in accord with that
 written license.
  
 The following legend is applicable only to US Government
 contracts under FAR:
  
                    RESTRICTED RIGHTS LEGEND
  
 Use, reproduction and disclosure by the US Government is
 subject to restrictions as set forth in subparagraphs (a)
 and (c) of the Commercial Computer Software - Restricted
 Rights clause in FAR 52.227-19.
  
 Gaussian, Inc.
 340 Quinnipiac St., Bldg. 40, Wallingford CT 06492
  
  
 ---------------------------------------------------------------
 Warning -- This program may not be used in any manner that
 competes with the business of Gaussian, Inc. or will provide
 assistance to any competitor of Gaussian, Inc.  The licensee
 of this program is prohibited from giving any competitor of
 Gaussian, Inc. access to this program.  By using this program,
 the user acknowledges that Gaussian, Inc. is engaged in the
 business of creating and licensing software in the field of
 computational chemistry and represents and warrants to the
 licensee that it is not a competitor of Gaussian, Inc. and that
 it will not use this program in any manner prohibited above.
 ---------------------------------------------------------------
  

 Cite this work as:
 Gaussian 16, Revision B.01,
 M. J. Frisch, G. W. Trucks, H. B. Schlegel, G. E. Scuseria, 
 M. A. Robb, J. R. Cheeseman, G. Scalmani, V. Barone, 
 G. A. Petersson, H. Nakatsuji, X. Li, M. Caricato, A. V. Marenich, 
 J. Bloino, B. G. Janesko, R. Gomperts, B. Mennucci, H. P. Hratchian, 
 J. V. Ortiz, A. F. Izmaylov, J. L. Sonnenberg, D. Williams-Young, 
 F. Ding, F. Lipparini, F. Egidi, J. Goings, B. Peng, A. Petrone, 
 T. Henderson, D. Ranasinghe, V. G. Zakrzewski, J. Gao, N. Rega, 
 G. Zheng, W. Liang, M. Hada, M. Ehara, K. Toyota, R. Fukuda, 
 J. Hasegawa, M. Ishida, T. Nakajima, Y. Honda, O. Kitao, H. Nakai, 
 T. Vreven, K. Throssell, J. A. Montgomery, Jr., J. E. Peralta, 
 F. Ogliaro, M. J. Bearpark, J. J. Heyd, E. N. Brothers, K. N. Kudin, 
 V. N. Staroverov, T. A. Keith, R. Kobayashi, J. Normand, 
 K. Raghavachari, A. P. Rendell, J. C. Burant, S. S. Iyengar, 
 J. Tomasi, M. Cossi, J. M. Millam, M. Klene, C. Adamo, R. Cammi, 
 J. W. Ochterski, R. L. Martin, K. Morokuma, O. Farkas, 
 J. B. Foresman, and D. J. Fox, Gaussian, Inc., Wallingford CT, 2016.
 
 ******************************************
 Gaussian 16:  EM64L-G16RevB.01 20-Dec-2017
                10-Nov-2023 
 ******************************************
 %nproc=4
 Will use up to    4 processors via shared memory.
 %Mem=2Gb
 ---------------------------------
 # TD=(NStates=1) B3LYP/6-31G(d,p)
 ---------------------------------
 1/38=1,172=1/1;
 2/12=2,17=6,18=5,40=1/2;
 3/5=1,6=6,7=101,11=9,25=1,30=1,74=-5/1,2,3,8;
 4//1;
 5/5=2,38=5/2;
 8/6=1,10=2,108=1/1;
 9/41=1,42=1,70=2/14;
 6/7=2,8=2,9=2,10=2/1;
 99/5=1,9=1/99;
 -------
 EMISPCT
 -------
 Symbolic Z-matrix:
 Charge =  0 Multiplicity = 1
 6                     0.30887   1.38049   0.01628 
 6                     1.37235   0.3667   -0.00763 
 6                     1.05705  -1.03474   0.02868 
 6                    -0.33009  -1.42979   0.00073 
 6                    -1.39788  -0.35047   0.05618 
 6                    -1.02594   1.02903  -0.12161 
 1                     0.59776   2.52111   0.32296 
 1                    -1.64097   1.80054   0.38801 
 1                    -2.51163  -0.60162  -0.03015 
 1                    -0.78526  -2.42287  -0.07984 
 1                     2.06094  -1.56382  -0.10537 
 1                     2.48105   0.72068  -0.12155 
 
                          Input orientation:                          
 ---------------------------------------------------------------------
 Center     Atomic      Atomic             Coordinates (Angstroms)
 Number     Number       Type             X           Y           Z
 ---------------------------------------------------------------------
      1          6           0        0.308867    1.380495    0.016276
      2          6           0        1.372352    0.366702   -0.007625
      3          6           0        1.057054   -1.034736    0.028676
      4          6           0       -0.330093   -1.429790    0.000730
      5          6           0       -1.397882   -0.350469    0.056182
      6          6           0       -1.025937    1.029027   -0.121610
      7          1           0        0.597763    2.521115    0.322962
      8          1           0       -1.640974    1.800541    0.388014
      9          1           0       -2.511631   -0.601624   -0.030146
     10          1           0       -0.785260   -2.422870   -0.079838
     11          1           0        2.060943   -1.563816   -0.105370
     12          1           0        2.481047    0.720681   -0.121554
 ---------------------------------------------------------------------
                    Distance matrix (angstroms):
                    1          2          3          4          5
     1  C    0.000000
     2  C    1.469472   0.000000
     3  C    2.528494   1.436927   0.000000
     4  C    2.882050   2.475029   1.442576   0.000000
     5  C    2.431217   2.862272   2.548665   1.519270   0.000000
     6  C    1.387171   2.490674   2.936079   2.558309   1.439779
     7  H    1.215949   2.313173   3.597448   4.071166   3.507101
     8  H    2.028918   3.360440   3.930302   3.507625   2.189988
     9  H    3.447631   4.002935   3.595353   2.333650   1.144976
    10  H    3.958780   3.527353   2.309289   1.095389   2.165330
    11  H    3.428343   2.051977   1.142666   2.397139   3.669030
    12  H    2.274361   1.169395   2.265351   3.541466   4.028032
                    6          7          8          9         10
     6  C    0.000000
     7  H    2.249526   0.000000
     8  H    1.110504   2.352743   0.000000
     9  H    2.207867   4.420918   2.589073   0.000000
    10  H    3.460530   5.149562   4.334551   2.509933   0.000000
    11  H    4.031368   4.360163   5.026580   4.673319   2.973130
    12  H    3.520513   2.643088   4.291481   5.165625   4.533477
                   11         12
    11  H    0.000000
    12  H    2.322859   0.000000
 Stoichiometry    C6H6
 Framework group  C1[X(C6H6)]
 Deg. of freedom    30
 Full point group                 C1      NOp   1
 Largest Abelian subgroup         C1      NOp   1
 Largest concise Abelian subgroup C1      NOp   1
                         Standard orientation:                         
 ---------------------------------------------------------------------
 Center     Atomic      Atomic             Coordinates (Angstroms)
 Number     Number       Type             X           Y           Z
 ---------------------------------------------------------------------
      1          6           0        0.516465   -1.310873   -0.007587
      2          6           0       -0.932540   -1.066478   -0.008935
      3          6           0       -1.455556    0.270734    0.046564
      4          6           0       -0.528025    1.375151    0.015332
      5          6           0        0.961681    1.078603    0.047202
      6          6           0        1.423492   -0.270906   -0.149055
      7          1           0        0.920136   -2.420272    0.283644
      8          1           0        2.372170   -0.570062    0.344642
      9          1           0        1.742478    1.911209   -0.042760
     10          1           0       -0.708160    2.453453   -0.053170
     11          1           0       -2.585330    0.147949   -0.072687
     12          1           0       -1.654393   -1.979659   -0.120801
 ---------------------------------------------------------------------
 Rotational constants (GHZ):           5.4347600           5.1510474           2.6590021
 Standard basis: 6-31G(d,p) (6D, 7F)
 There are   120 symmetry adapted cartesian basis functions of A   symmetry.
 There are   120 symmetry adapted basis functions of A   symmetry.
   120 basis functions,   210 primitive gaussians,   120 cartesian basis functions
    21 alpha electrons       21 beta electrons
       nuclear repulsion energy       195.9475246924 Hartrees.
 NAtoms=   12 NActive=   12 NUniq=   12 SFac= 1.00D+00 NAtFMM=   60 NAOKFM=F Big=F
 Integral buffers will be    131072 words long.
 Regular integral format.
 Two-electron integral symmetry is turned on.
 One-electron integrals computed using PRISM.
 NBasis=   120 RedAO= T EigKep=  1.26D-03  NBF=   120
 NBsUse=   120 1.00D-06 EigRej= -1.00D+00 NBFU=   120
 ExpMin= 1.61D-01 ExpMax= 3.05D+03 ExpMxC= 4.57D+02 IAcc=3 IRadAn=         5 AccDes= 0.00D+00
 Harris functional with IExCor=  402 and IRadAn=       5 diagonalized for initial guess.
 HarFok:  IExCor=  402 AccDes= 0.00D+00 IRadAn=         5 IDoV= 1 UseB2=F ITyADJ=14
 ICtDFT=  3500011 ScaDFX=  1.000000  1.000000  1.000000  1.000000
 FoFCou: FMM=F IPFlag=           0 FMFlag=      100000 FMFlg1=           0
         NFxFlg=           0 DoJE=T BraDBF=F KetDBF=T FulRan=T
         wScrn=  0.000000 ICntrl=       500 IOpCl=  0 I1Cent=   200000004 NGrid=           0
         NMat0=    1 NMatS0=      1 NMatT0=    0 NMatD0=    1 NMtDS0=    0 NMtDT0=    0
 Petite list used in FoFCou.
 Keep R1 ints in memory in canonical form, NReq=30147728.
 Requested convergence on RMS density matrix=1.00D-08 within 128 cycles.
 Requested convergence on MAX density matrix=1.00D-06.
 Requested convergence on             energy=1.00D-06.
 No special actions if energy rises.
 Integral accuracy reduced to 1.0D-05 until final iterations.
 Initial convergence to 1.0D-05 achieved.  Increase integral accuracy.
 SCF Done:  E(RB3LYP) =  -232.185008809     A.U. after   13 cycles
            NFock= 13  Conv=0.90D-08     -V/T= 2.0145
 DoSCS=F DFT=T ScalE2(SS,OS)=  1.000000  1.000000
 ExpMin= 1.61D-01 ExpMax= 3.05D+03 ExpMxC= 4.57D+02 IAcc=3 IRadAn=         5 AccDes= 0.00D+00
 HarFok:  IExCor=  205 AccDes= 0.00D+00 IRadAn=         5 IDoV=-2 UseB2=F ITyADJ=14
 ICtDFT= 12500011 ScaDFX=  1.000000  1.000000  1.000000  1.000000
 Range of M.O.s used for correlation:     7   120
 NBasis=   120 NAE=    21 NBE=    21 NFC=     6 NFV=     0
 NROrb=    114 NOA=    15 NOB=    15 NVA=    99 NVB=    99
 Keep R1, R2, and R3 ints in memory in canonical form, NReq=84032236.
 Orbital symmetries:
       Occupied  (A) (A) (A) (A) (A) (A) (A) (A) (A) (A) (A) (A)
                 (A) (A) (A) (A) (A) (A) (A) (A) (A)
       Virtual   (A) (A) (A) (A) (A) (A) (A) (A) (A) (A) (A) (A)
                 (A) (A) (A) (A) (A) (A) (A) (A) (A) (A) (A) (A)
                 (A) (A) (A) (A) (A) (A) (A) (A) (A) (A) (A) (A)
                 (A) (A) (A) (A) (A) (A) (A) (A) (A) (A) (A) (A)
                 (A) (A) (A) (A) (A) (A) (A) (A) (A) (A) (A) (A)
                 (A) (A) (A) (A) (A) (A) (A) (A) (A) (A) (A) (A)
                 (A) (A) (A) (A) (A) (A) (A) (A) (A) (A) (A) (A)
                 (A) (A) (A) (A) (A) (A) (A) (A) (A) (A) (A) (A)
                 (A) (A) (A)
     4 initial guesses have been made.
 Convergence on wavefunction:    0.001000000000000
 Iteration     1 Dimension     4 NMult     0 NNew      4
 CISAX will form     4 AO SS matrices at one time.
 New state      1 was old state      2
 Iteration     2 Dimension     6 NMult     4 NNew      2
 Iteration     3 Dimension     8 NMult     6 NNew      2
 Iteration     4 Dimension    10 NMult     8 NNew      2
 Iteration     5 Dimension    12 NMult    10 NNew      2
 ***********************************************************************
 Excited states from <AA,BB:AA,BB> singles matrix:
 ***********************************************************************
 
 Ground to excited state transition densities written to RWF  633
 Ground to excited state transition electric dipole moments (Au):
       state          X           Y           Z        Dip. S.      Osc.
         1         0.0596      0.2119      0.0125      0.0486      0.0057
 Ground to excited state transition velocity dipole moments (Au):
       state          X           Y           Z        Dip. S.      Osc.
         1        -0.0101     -0.0373     -0.0024      0.0015      0.0057
 Ground to excited state transition magnetic dipole moments (Au):
       state          X           Y           Z
         1         0.0188     -0.0056      0.0782
 Ground to excited state transition velocity quadrupole moments (Au):
       state          XX          YY          ZZ          XY          XZ          YZ
         1        -0.0128      0.0103     -0.0010     -0.0130     -0.0080      0.0022
 <0|del|b> * <b|rxdel|0> + <0|del|b> * <b|delr+rdel|0>
 Rotatory Strengths (R) in cgs (10**-40 erg-esu-cm/Gauss)
       state          XX          YY          ZZ    R(velocity)    E-M Angle
         1        -0.4871     -0.8587      0.6736     -0.2241       93.08
 1/2[<0|r|b>*<b|rxdel|0> + (<0|rxdel|b>*<b|r|0>)*]
 Rotatory Strengths (R) in cgs (10**-40 erg-esu-cm/Gauss)
       state          XX          YY          ZZ     R(length)
         1        -0.7925      0.8357     -0.6920     -0.2163
  1/2[<0|del|b>*<b|r|0> + (<0|r|b>*<b|del|0>)*] (Au)
       state          X           Y           Z        Dip. S.   Osc.(frdel)
         1        -0.0006     -0.0079     -0.0000      0.0085      0.0057

 Excitation energies and oscillator strengths:
 
 Excited State   1:      Singlet-A      4.8096 eV  257.79 nm  f=0.0057  <S**2>=0.000
      20 -> 22        -0.41804
      20 -> 23        -0.10423
      21 -> 22        -0.17293
      21 -> 23         0.53292
 This state for optimization and/or second-order correction.
 Total Energy, E(TD-HF/TD-DFT) =  -232.008260514    
 Copying the excited state density for this state as the 1-particle RhoCI density.
 SavETr:  write IOETrn=   770 NScale= 10 NData=  16 NLR=1 NState=    1 LETran=      28.

 **********************************************************************

            Population analysis using the SCF Density.

 **********************************************************************

 Orbital symmetries:
       Occupied  (A) (A) (A) (A) (A) (A) (A) (A) (A) (A) (A) (A)
                 (A) (A) (A) (A) (A) (A) (A) (A) (A)
       Virtual   (A) (A) (A) (A) (A) (A) (A) (A) (A) (A) (A) (A)
                 (A) (A) (A) (A) (A) (A) (A) (A) (A) (A) (A) (A)
                 (A) (A) (A) (A) (A) (A) (A) (A) (A) (A) (A) (A)
                 (A) (A) (A) (A) (A) (A) (A) (A) (A) (A) (A) (A)
                 (A) (A) (A) (A) (A) (A) (A) (A) (A) (A) (A) (A)
                 (A) (A) (A) (A) (A) (A) (A) (A) (A) (A) (A) (A)
                 (A) (A) (A) (A) (A) (A) (A) (A) (A) (A) (A) (A)
                 (A) (A) (A) (A) (A) (A) (A) (A) (A) (A) (A) (A)
                 (A) (A) (A)
 The electronic state is 1-A.
 Alpha  occ. eigenvalues --  -10.21663 -10.21515 -10.21484 -10.20888 -10.20848
 Alpha  occ. eigenvalues --  -10.19284  -0.82741  -0.73999  -0.71769  -0.59282
 Alpha  occ. eigenvalues --   -0.58426  -0.49818  -0.44826  -0.43351  -0.41022
 Alpha  occ. eigenvalues --   -0.39533  -0.35821  -0.33419  -0.31902  -0.25451
 Alpha  occ. eigenvalues --   -0.23189
 Alpha virt. eigenvalues --   -0.02392  -0.01598   0.07180   0.10916   0.11344
 Alpha virt. eigenvalues --    0.13307   0.14761   0.16728   0.17789   0.24837
 Alpha virt. eigenvalues --    0.28142   0.28919   0.30555   0.44486   0.47676
 Alpha virt. eigenvalues --    0.48427   0.52677   0.54390   0.56289   0.58591
 Alpha virt. eigenvalues --    0.60280   0.60673   0.61860   0.62541   0.64842
 Alpha virt. eigenvalues --    0.64958   0.67148   0.72428   0.75456   0.76833
 Alpha virt. eigenvalues --    0.79675   0.81330   0.83098   0.88202   0.89032
 Alpha virt. eigenvalues --    0.91998   0.92420   0.93181   1.03329   1.07358
 Alpha virt. eigenvalues --    1.08971   1.11263   1.23373   1.28610   1.29707
 Alpha virt. eigenvalues --    1.32942   1.41156   1.43384   1.52321   1.55744
 Alpha virt. eigenvalues --    1.67960   1.69331   1.71124   1.74391   1.80719
 Alpha virt. eigenvalues --    1.83244   1.89493   1.91436   1.93892   1.98577
 Alpha virt. eigenvalues --    2.01232   2.02638   2.08072   2.15662   2.18665
 Alpha virt. eigenvalues --    2.23844   2.24553   2.30198   2.34511   2.35373
 Alpha virt. eigenvalues --    2.38351   2.40142   2.41789   2.43230   2.44727
 Alpha virt. eigenvalues --    2.45658   2.48896   2.50354   2.57698   2.59596
 Alpha virt. eigenvalues --    2.64958   2.69116   2.71559   2.83651   2.89016
 Alpha virt. eigenvalues --    2.98446   3.06555   3.11092   3.18561   3.28069
 Alpha virt. eigenvalues --    3.31258   3.41985   3.67913   4.07944   4.15630
 Alpha virt. eigenvalues --    4.18899   4.40466   4.44975   4.71994
          Condensed to atoms (all electrons):
               1          2          3          4          5          6
     1  C    4.863882   0.519725  -0.035980  -0.030656  -0.048138   0.531494
     2  C    0.519725   4.886989   0.518034  -0.038929  -0.030572  -0.040336
     3  C   -0.035980   0.518034   4.841437   0.514521  -0.027378  -0.030358
     4  C   -0.030656  -0.038929   0.514521   4.878376   0.502805  -0.033357
     5  C   -0.048138  -0.030572  -0.027378   0.502805   4.920041   0.504821
     6  C    0.531494  -0.040336  -0.030358  -0.033357   0.504821   4.867791
     7  H    0.352276  -0.034140   0.003388   0.000316   0.004153  -0.037378
     8  H   -0.045295   0.005102   0.000440   0.003535  -0.038311   0.363812
     9  H    0.004492   0.000292   0.002751  -0.032873   0.360202  -0.039548
    10  H    0.000273   0.003495  -0.035663   0.369016  -0.045415   0.004334
    11  H    0.004852  -0.049276   0.361643  -0.029815   0.002500   0.000200
    12  H   -0.035847   0.358649  -0.037998   0.003674   0.000181   0.004286
               7          8          9         10         11         12
     1  C    0.352276  -0.045295   0.004492   0.000273   0.004852  -0.035847
     2  C   -0.034140   0.005102   0.000292   0.003495  -0.049276   0.358649
     3  C    0.003388   0.000440   0.002751  -0.035663   0.361643  -0.037998
     4  C    0.000316   0.003535  -0.032873   0.369016  -0.029815   0.003674
     5  C    0.004153  -0.038311   0.360202  -0.045415   0.002500   0.000181
     6  C   -0.037378   0.363812  -0.039548   0.004334   0.000200   0.004286
     7  H    0.643024  -0.008844  -0.000148   0.000008  -0.000169  -0.003437
     8  H   -0.008844   0.629103  -0.003812  -0.000161   0.000015  -0.000184
     9  H   -0.000148  -0.003812   0.616708  -0.003922  -0.000055   0.000005
    10  H    0.000008  -0.000161  -0.003922   0.609848  -0.002405  -0.000088
    11  H   -0.000169   0.000015  -0.000055  -0.002405   0.617583  -0.007115
    12  H   -0.003437  -0.000184   0.000005  -0.000088  -0.007115   0.629847
 Mulliken charges:
               1
     1  C   -0.081079
     2  C   -0.099032
     3  C   -0.074836
     4  C   -0.106614
     5  C   -0.104889
     6  C   -0.095762
     7  H    0.080950
     8  H    0.094601
     9  H    0.095909
    10  H    0.100680
    11  H    0.102043
    12  H    0.088028
 Sum of Mulliken charges =  -0.00000
 Mulliken charges with hydrogens summed into heavy atoms:
               1
     1  C   -0.000129
     2  C   -0.011004
     3  C    0.027207
     4  C   -0.005934
     5  C   -0.008980
     6  C   -0.001161
 Electronic spatial extent (au):  <R**2>=            486.9159
 Charge=             -0.0000 electrons
 Dipole moment (field-independent basis, Debye):
    X=             -0.2115    Y=              0.0062    Z=              0.1955  Tot=              0.2881
 Quadrupole moment (field-independent basis, Debye-Ang):
   XX=            -32.1960   YY=            -31.7827   ZZ=            -39.2193
   XY=              0.7119   XZ=              1.2051   YZ=             -0.7016
 Traceless Quadrupole moment (field-independent basis, Debye-Ang):
   XX=              2.2033   YY=              2.6166   ZZ=             -4.8200
   XY=              0.7119   XZ=              1.2051   YZ=             -0.7016
 Octapole moment (field-independent basis, Debye-Ang**2):
  XXX=             -3.3120  YYY=              2.1394  ZZZ=              0.2271  XYY=              0.9717
  XXY=             -1.4484  XXZ=              1.1165  XZZ=              0.3623  YZZ=             -0.2080
  YYZ=              0.4138  XYZ=             -1.3228
 Hexadecapole moment (field-independent basis, Debye-Ang**3):
 XXXX=           -301.3604 YYYY=           -284.7279 ZZZZ=            -43.3960 XXXY=              6.4356
 XXXZ=              7.3020 YYYX=              1.5129 YYYZ=             -4.1201 ZZZX=              1.2334
 ZZZY=             -0.6560 XXYY=            -98.2144 XXZZ=            -65.9239 YYZZ=            -64.6229
 XXYZ=             -1.6731 YYXZ=              2.3355 ZZXY=             -0.3442
 N-N= 1.959475246924D+02 E-N=-9.282552627790D+02  KE= 2.288724045968D+02
 1\1\GINC-DESKTOP-PRN5QE3\SP\RB3LYP TD-FC\6-31G(d,p)\C6H6\SHOHEI\10-Nov
 -2023\0\\# TD=(NStates=1) B3LYP/6-31G(d,p)\\EMISPCT\\0,1\C,0,0.3088669
 392,1.3804948506,0.0162755378\C,0,1.3723519622,0.3667021,-0.0076251066
 \C,0,1.0570544606,-1.0347364746,0.0286760139\C,0,-0.3300927991,-1.4297
 895833,0.0007300997\C,0,-1.3978818441,-0.3504685768,0.0561818224\C,0,-
 1.025936673,1.0290274821,-0.1216099644\H,0,0.5977626683,2.5211149006,0
 .3229615589\H,0,-1.6409738696,1.8005405068,0.3880143162\H,0,-2.5116310
 746,-0.6016241985,-0.0301464139\H,0,-0.7852600401,-2.4228704048,-0.079
 8375423\H,0,2.0609431768,-1.5638155225,-0.1053700317\H,0,2.4810468549,
 0.7206810343,-0.1215540581\\Version=EM64L-G16RevB.01\State=1-A\HF=-232
 .1850088\RMSD=9.015e-09\PG=C01 [X(C6H6)]\\@


 ERROR IS A HARDY PLANT... IT FLOURISHETH IN EVERY SOIL.
            MARTIN FARQUHAR TUPPER
 Job cpu time:       0 days  0 hours  3 minutes  1.3 seconds.
 Elapsed time:       0 days  0 hours  0 minutes 46.0 seconds.
 File lengths (MBytes):  RWF=    116 Int=      0 D2E=      0 Chk=      3 Scr=      1
 Normal termination of Gaussian 16 at Fri Nov 10 20:11:27 2023.
