 Entering Gaussian System, Link 0=g16
 Input=Geometry-258-.com
 Output=Geometry-258-.log
 Initial command:
 /home/shohei/gaussian/g16/l1.exe "/home/shohei/gaussian/scratch/Gau-13409.inp" -scrdir="/home/shohei/gaussian/scratch/"
 Entering Link 1 = /home/shohei/gaussian/g16/l1.exe PID=     13411.
  
 Copyright (c) 1988-2017, Gaussian, Inc.  All Rights Reserved.
  
 This is part of the Gaussian(R) 16 program.  It is based on
 the Gaussian(R) 09 system (copyright 2009, Gaussian, Inc.),
 the Gaussian(R) 03 system (copyright 2003, Gaussian, Inc.),
 the Gaussian(R) 98 system (copyright 1998, Gaussian, Inc.),
 the Gaussian(R) 94 system (copyright 1995, Gaussian, Inc.),
 the Gaussian 92(TM) system (copyright 1992, Gaussian, Inc.),
 the Gaussian 90(TM) system (copyright 1990, Gaussian, Inc.),
 the Gaussian 88(TM) system (copyright 1988, Gaussian, Inc.),
 the Gaussian 86(TM) system (copyright 1986, Carnegie Mellon
 University), and the Gaussian 82(TM) system (copyright 1983,
 Carnegie Mellon University). Gaussian is a federally registered
 trademark of Gaussian, Inc.
  
 This software contains proprietary and confidential information,
 including trade secrets, belonging to Gaussian, Inc.
  
 This software is provided under written license and may be
 used, copied, transmitted, or stored only in accord with that
 written license.
  
 The following legend is applicable only to US Government
 contracts under FAR:
  
                    RESTRICTED RIGHTS LEGEND
  
 Use, reproduction and disclosure by the US Government is
 subject to restrictions as set forth in subparagraphs (a)
 and (c) of the Commercial Computer Software - Restricted
 Rights clause in FAR 52.227-19.
  
 Gaussian, Inc.
 340 Quinnipiac St., Bldg. 40, Wallingford CT 06492
  
  
 ---------------------------------------------------------------
 Warning -- This program may not be used in any manner that
 competes with the business of Gaussian, Inc. or will provide
 assistance to any competitor of Gaussian, Inc.  The licensee
 of this program is prohibited from giving any competitor of
 Gaussian, Inc. access to this program.  By using this program,
 the user acknowledges that Gaussian, Inc. is engaged in the
 business of creating and licensing software in the field of
 computational chemistry and represents and warrants to the
 licensee that it is not a competitor of Gaussian, Inc. and that
 it will not use this program in any manner prohibited above.
 ---------------------------------------------------------------
  

 Cite this work as:
 Gaussian 16, Revision B.01,
 M. J. Frisch, G. W. Trucks, H. B. Schlegel, G. E. Scuseria, 
 M. A. Robb, J. R. Cheeseman, G. Scalmani, V. Barone, 
 G. A. Petersson, H. Nakatsuji, X. Li, M. Caricato, A. V. Marenich, 
 J. Bloino, B. G. Janesko, R. Gomperts, B. Mennucci, H. P. Hratchian, 
 J. V. Ortiz, A. F. Izmaylov, J. L. Sonnenberg, D. Williams-Young, 
 F. Ding, F. Lipparini, F. Egidi, J. Goings, B. Peng, A. Petrone, 
 T. Henderson, D. Ranasinghe, V. G. Zakrzewski, J. Gao, N. Rega, 
 G. Zheng, W. Liang, M. Hada, M. Ehara, K. Toyota, R. Fukuda, 
 J. Hasegawa, M. Ishida, T. Nakajima, Y. Honda, O. Kitao, H. Nakai, 
 T. Vreven, K. Throssell, J. A. Montgomery, Jr., J. E. Peralta, 
 F. Ogliaro, M. J. Bearpark, J. J. Heyd, E. N. Brothers, K. N. Kudin, 
 V. N. Staroverov, T. A. Keith, R. Kobayashi, J. Normand, 
 K. Raghavachari, A. P. Rendell, J. C. Burant, S. S. Iyengar, 
 J. Tomasi, M. Cossi, J. M. Millam, M. Klene, C. Adamo, R. Cammi, 
 J. W. Ochterski, R. L. Martin, K. Morokuma, O. Farkas, 
 J. B. Foresman, and D. J. Fox, Gaussian, Inc., Wallingford CT, 2016.
 
 ******************************************
 Gaussian 16:  EM64L-G16RevB.01 20-Dec-2017
                10-Nov-2023 
 ******************************************
 %nproc=4
 Will use up to    4 processors via shared memory.
 %Mem=2Gb
 ---------------------------------
 # TD=(NStates=1) B3LYP/6-31G(d,p)
 ---------------------------------
 1/38=1,172=1/1;
 2/12=2,17=6,18=5,40=1/2;
 3/5=1,6=6,7=101,11=9,25=1,30=1,74=-5/1,2,3,8;
 4//1;
 5/5=2,38=5/2;
 8/6=1,10=2,108=1/1;
 9/41=1,42=1,70=2/14;
 6/7=2,8=2,9=2,10=2/1;
 99/5=1,9=1/99;
 -------
 EMISPCT
 -------
 Symbolic Z-matrix:
 Charge =  0 Multiplicity = 1
 6                     0.37569   1.42336  -0.03621 
 6                     1.33234   0.38896  -0.0489 
 6                     1.03782  -1.03641   0.09155 
 6                    -0.33553  -1.41765  -0.08557 
 6                    -1.37334  -0.38804   0.00019 
 6                    -1.03831   1.04232   0.06469 
 1                     0.63681   2.42053   0.08051 
 1                    -1.92829   1.81703   0.01132 
 1                    -2.31366  -0.74983   0.02479 
 1                    -0.51899  -2.43924  -0.11001 
 1                     1.69477  -1.65738   0.35471 
 1                     2.44547   0.47407  -0.16662 
 
                          Input orientation:                          
 ---------------------------------------------------------------------
 Center     Atomic      Atomic             Coordinates (Angstroms)
 Number     Number       Type             X           Y           Z
 ---------------------------------------------------------------------
      1          6           0        0.375695    1.423359   -0.036207
      2          6           0        1.332337    0.388960   -0.048905
      3          6           0        1.037821   -1.036409    0.091552
      4          6           0       -0.335532   -1.417654   -0.085571
      5          6           0       -1.373336   -0.388042    0.000195
      6          6           0       -1.038308    1.042320    0.064689
      7          1           0        0.636815    2.420532    0.080510
      8          1           0       -1.928292    1.817026    0.011322
      9          1           0       -2.313656   -0.749831    0.024794
     10          1           0       -0.518994   -2.439240   -0.110013
     11          1           0        1.694767   -1.657380    0.354706
     12          1           0        2.445469    0.474074   -0.166622
 ---------------------------------------------------------------------
                    Distance matrix (angstroms):
                    1          2          3          4          5
     1  C    0.000000
     2  C    1.409009   0.000000
     3  C    2.550528   1.462239   0.000000
     4  C    2.929101   2.459062   1.436252   0.000000
     5  C    2.518254   2.815458   2.498480   1.464409   0.000000
     6  C    1.467915   2.461654   2.938052   2.562801   1.470490
     7  H    1.037382   2.151228   3.480139   3.962917   3.454742
     8  H    2.337860   3.560155   4.116595   3.606859   2.273857
     9  H    3.458190   3.820410   3.364369   2.090727   1.007818
    10  H    3.965550   3.380809   2.105287   1.038217   2.224739
    11  H    3.373977   2.117018   0.941506   2.091274   3.339185
    12  H    2.280814   1.122571   2.080790   3.364397   3.918462
                    6          7          8          9         10
     6  C    0.000000
     7  H    2.169274   0.000000
     8  H    1.181139   2.636054   0.000000
     9  H    2.199979   4.331233   2.595658   0.000000
    10  H    3.524411   4.998957   4.485159   2.468418   0.000000
    11  H    3.852557   4.221826   5.031498   4.123098   2.393325
    12  H    3.537387   2.668521   4.578752   4.917707   4.156758
                   11         12
    11  H    0.000000
    12  H    2.319145   0.000000
 Stoichiometry    C6H6
 Framework group  C1[X(C6H6)]
 Deg. of freedom    30
 Full point group                 C1      NOp   1
 Largest Abelian subgroup         C1      NOp   1
 Largest concise Abelian subgroup C1      NOp   1
                         Standard orientation:                         
 ---------------------------------------------------------------------
 Center     Atomic      Atomic             Coordinates (Angstroms)
 Number     Number       Type             X           Y           Z
 ---------------------------------------------------------------------
      1          6           0        1.193427   -0.864172   -0.037904
      2          6           0       -0.116410   -1.383210   -0.053207
      3          6           0       -1.339761   -0.594467    0.086217
      4          6           0       -1.199610    0.824135   -0.089129
      5          6           0        0.134928    1.420515   -0.000634
      6          6           0        1.348004    0.591961    0.064834
      7          1           0        2.029067   -1.467576    0.079449
      8          1           0        2.391691    1.142589    0.013694
      9          1           0        0.136691    2.428003    0.025076
     10          1           0       -2.086178    1.363815   -0.114355
     11          1           0       -2.156322   -0.983442    0.347675
     12          1           0       -0.438415   -2.451958   -0.172600
 ---------------------------------------------------------------------
 Rotational constants (GHZ):           5.5235928           5.1689106           2.6831495
 Standard basis: 6-31G(d,p) (6D, 7F)
 There are   120 symmetry adapted cartesian basis functions of A   symmetry.
 There are   120 symmetry adapted basis functions of A   symmetry.
   120 basis functions,   210 primitive gaussians,   120 cartesian basis functions
    21 alpha electrons       21 beta electrons
       nuclear repulsion energy       197.9713366874 Hartrees.
 NAtoms=   12 NActive=   12 NUniq=   12 SFac= 1.00D+00 NAtFMM=   60 NAOKFM=F Big=F
 Integral buffers will be    131072 words long.
 Regular integral format.
 Two-electron integral symmetry is turned on.
 One-electron integrals computed using PRISM.
 NBasis=   120 RedAO= T EigKep=  9.39D-04  NBF=   120
 NBsUse=   120 1.00D-06 EigRej= -1.00D+00 NBFU=   120
 ExpMin= 1.61D-01 ExpMax= 3.05D+03 ExpMxC= 4.57D+02 IAcc=3 IRadAn=         5 AccDes= 0.00D+00
 Harris functional with IExCor=  402 and IRadAn=       5 diagonalized for initial guess.
 HarFok:  IExCor=  402 AccDes= 0.00D+00 IRadAn=         5 IDoV= 1 UseB2=F ITyADJ=14
 ICtDFT=  3500011 ScaDFX=  1.000000  1.000000  1.000000  1.000000
 FoFCou: FMM=F IPFlag=           0 FMFlag=      100000 FMFlg1=           0
         NFxFlg=           0 DoJE=T BraDBF=F KetDBF=T FulRan=T
         wScrn=  0.000000 ICntrl=       500 IOpCl=  0 I1Cent=   200000004 NGrid=           0
         NMat0=    1 NMatS0=      1 NMatT0=    0 NMatD0=    1 NMtDS0=    0 NMtDT0=    0
 Petite list used in FoFCou.
 Keep R1 ints in memory in canonical form, NReq=30147728.
 Requested convergence on RMS density matrix=1.00D-08 within 128 cycles.
 Requested convergence on MAX density matrix=1.00D-06.
 Requested convergence on             energy=1.00D-06.
 No special actions if energy rises.
 Integral accuracy reduced to 1.0D-05 until final iterations.
 Initial convergence to 1.0D-05 achieved.  Increase integral accuracy.
 SCF Done:  E(RB3LYP) =  -232.190964077     A.U. after   13 cycles
            NFock= 13  Conv=0.85D-08     -V/T= 2.0114
 DoSCS=F DFT=T ScalE2(SS,OS)=  1.000000  1.000000
 ExpMin= 1.61D-01 ExpMax= 3.05D+03 ExpMxC= 4.57D+02 IAcc=3 IRadAn=         5 AccDes= 0.00D+00
 HarFok:  IExCor=  205 AccDes= 0.00D+00 IRadAn=         5 IDoV=-2 UseB2=F ITyADJ=14
 ICtDFT= 12500011 ScaDFX=  1.000000  1.000000  1.000000  1.000000
 Range of M.O.s used for correlation:     7   120
 NBasis=   120 NAE=    21 NBE=    21 NFC=     6 NFV=     0
 NROrb=    114 NOA=    15 NOB=    15 NVA=    99 NVB=    99
 Keep R1, R2, and R3 ints in memory in canonical form, NReq=84032236.
 Orbital symmetries:
       Occupied  (A) (A) (A) (A) (A) (A) (A) (A) (A) (A) (A) (A)
                 (A) (A) (A) (A) (A) (A) (A) (A) (A)
       Virtual   (A) (A) (A) (A) (A) (A) (A) (A) (A) (A) (A) (A)
                 (A) (A) (A) (A) (A) (A) (A) (A) (A) (A) (A) (A)
                 (A) (A) (A) (A) (A) (A) (A) (A) (A) (A) (A) (A)
                 (A) (A) (A) (A) (A) (A) (A) (A) (A) (A) (A) (A)
                 (A) (A) (A) (A) (A) (A) (A) (A) (A) (A) (A) (A)
                 (A) (A) (A) (A) (A) (A) (A) (A) (A) (A) (A) (A)
                 (A) (A) (A) (A) (A) (A) (A) (A) (A) (A) (A) (A)
                 (A) (A) (A) (A) (A) (A) (A) (A) (A) (A) (A) (A)
                 (A) (A) (A)
     4 initial guesses have been made.
 Convergence on wavefunction:    0.001000000000000
 Iteration     1 Dimension     4 NMult     0 NNew      4
 CISAX will form     4 AO SS matrices at one time.
 New state      1 was old state      3
 Iteration     2 Dimension     6 NMult     4 NNew      2
 Iteration     3 Dimension     8 NMult     6 NNew      2
 Iteration     4 Dimension    10 NMult     8 NNew      2
 Iteration     5 Dimension    12 NMult    10 NNew      2
 ***********************************************************************
 Excited states from <AA,BB:AA,BB> singles matrix:
 ***********************************************************************
 
 Ground to excited state transition densities written to RWF  633
 Ground to excited state transition electric dipole moments (Au):
       state          X           Y           Z        Dip. S.      Osc.
         1         0.1176     -0.0005     -0.0014      0.0138      0.0017
 Ground to excited state transition velocity dipole moments (Au):
       state          X           Y           Z        Dip. S.      Osc.
         1        -0.0228      0.0000      0.0001      0.0005      0.0019
 Ground to excited state transition magnetic dipole moments (Au):
       state          X           Y           Z
         1         0.0188     -0.0119      0.0006
 Ground to excited state transition velocity quadrupole moments (Au):
       state          XX          YY          ZZ          XY          XZ          YZ
         1        -0.0142      0.0044      0.0017     -0.0014      0.0081     -0.0192
 <0|del|b> * <b|rxdel|0> + <0|del|b> * <b|delr+rdel|0>
 Rotatory Strengths (R) in cgs (10**-40 erg-esu-cm/Gauss)
       state          XX          YY          ZZ    R(velocity)    E-M Angle
         1        -0.0004      0.0208     -1.7134     -0.5644      147.59
 1/2[<0|r|b>*<b|rxdel|0> + (<0|rxdel|b>*<b|r|0>)*]
 Rotatory Strengths (R) in cgs (10**-40 erg-esu-cm/Gauss)
       state          XX          YY          ZZ     R(length)
         1        -1.5610     -0.0046      0.0006     -0.5217
  1/2[<0|del|b>*<b|r|0> + (<0|r|b>*<b|del|0>)*] (Au)
       state          X           Y           Z        Dip. S.   Osc.(frdel)
         1        -0.0027     -0.0000     -0.0000      0.0027      0.0018

 Excitation energies and oscillator strengths:
 
 Excited State   1:      Singlet-A      4.8727 eV  254.44 nm  f=0.0017  <S**2>=0.000
      20 -> 22         0.42141
      20 -> 23        -0.22946
      21 -> 22        -0.30796
      21 -> 23        -0.41778
 This state for optimization and/or second-order correction.
 Total Energy, E(TD-HF/TD-DFT) =  -232.011894126    
 Copying the excited state density for this state as the 1-particle RhoCI density.
 SavETr:  write IOETrn=   770 NScale= 10 NData=  16 NLR=1 NState=    1 LETran=      28.

 **********************************************************************

            Population analysis using the SCF Density.

 **********************************************************************

 Orbital symmetries:
       Occupied  (A) (A) (A) (A) (A) (A) (A) (A) (A) (A) (A) (A)
                 (A) (A) (A) (A) (A) (A) (A) (A) (A)
       Virtual   (A) (A) (A) (A) (A) (A) (A) (A) (A) (A) (A) (A)
                 (A) (A) (A) (A) (A) (A) (A) (A) (A) (A) (A) (A)
                 (A) (A) (A) (A) (A) (A) (A) (A) (A) (A) (A) (A)
                 (A) (A) (A) (A) (A) (A) (A) (A) (A) (A) (A) (A)
                 (A) (A) (A) (A) (A) (A) (A) (A) (A) (A) (A) (A)
                 (A) (A) (A) (A) (A) (A) (A) (A) (A) (A) (A) (A)
                 (A) (A) (A) (A) (A) (A) (A) (A) (A) (A) (A) (A)
                 (A) (A) (A) (A) (A) (A) (A) (A) (A) (A) (A) (A)
                 (A) (A) (A)
 The electronic state is 1-A.
 Alpha  occ. eigenvalues --  -10.21363 -10.19971 -10.19804 -10.19502 -10.19349
 Alpha  occ. eigenvalues --  -10.18344  -0.82405  -0.73626  -0.72721  -0.60089
 Alpha  occ. eigenvalues --   -0.59672  -0.51907  -0.47624  -0.43330  -0.41750
 Alpha  occ. eigenvalues --   -0.40597  -0.35400  -0.34239  -0.32701  -0.24091
 Alpha  occ. eigenvalues --   -0.23242
 Alpha virt. eigenvalues --   -0.01617  -0.00693   0.09216   0.12778   0.14450
 Alpha virt. eigenvalues --    0.15355   0.16960   0.17572   0.20556   0.26701
 Alpha virt. eigenvalues --    0.27833   0.28451   0.31015   0.47251   0.47973
 Alpha virt. eigenvalues --    0.49644   0.53634   0.53952   0.57879   0.58582
 Alpha virt. eigenvalues --    0.59604   0.60156   0.60692   0.62065   0.63645
 Alpha virt. eigenvalues --    0.66500   0.66694   0.72885   0.78168   0.81597
 Alpha virt. eigenvalues --    0.85603   0.88132   0.90390   0.90919   0.91728
 Alpha virt. eigenvalues --    0.92971   0.96720   1.02919   1.04702   1.07016
 Alpha virt. eigenvalues --    1.08610   1.12058   1.22932   1.29803   1.31983
 Alpha virt. eigenvalues --    1.36099   1.40164   1.43496   1.50695   1.54575
 Alpha virt. eigenvalues --    1.69389   1.71113   1.74783   1.82504   1.88852
 Alpha virt. eigenvalues --    1.89156   1.90628   1.94564   1.95917   1.98146
 Alpha virt. eigenvalues --    1.99018   2.01141   2.02395   2.20646   2.21239
 Alpha virt. eigenvalues --    2.32971   2.33701   2.36526   2.38196   2.40471
 Alpha virt. eigenvalues --    2.43066   2.44664   2.46315   2.50434   2.51682
 Alpha virt. eigenvalues --    2.53987   2.55377   2.59694   2.63840   2.66617
 Alpha virt. eigenvalues --    2.70324   2.77014   2.78343   2.98446   3.01903
 Alpha virt. eigenvalues --    3.10589   3.18661   3.26174   3.36732   3.46655
 Alpha virt. eigenvalues --    3.59075   3.70364   3.95563   4.06942   4.16021
 Alpha virt. eigenvalues --    4.16956   4.41966   4.43899   4.74009
          Condensed to atoms (all electrons):
               1          2          3          4          5          6
     1  C    4.830159   0.535215  -0.033689  -0.031197  -0.032487   0.497456
     2  C    0.535215   4.860574   0.511979  -0.030686  -0.038248  -0.030224
     3  C   -0.033689   0.511979   4.813172   0.537717  -0.034161  -0.029621
     4  C   -0.031197  -0.030686   0.537717   4.841668   0.515158  -0.026701
     5  C   -0.032487  -0.038248  -0.034161   0.515158   4.840402   0.518723
     6  C    0.497456  -0.030224  -0.029621  -0.026701   0.518723   4.896434
     7  H    0.379749  -0.040685   0.003831   0.000378   0.003681  -0.042677
     8  H   -0.032520   0.002925   0.000377   0.002928  -0.035229   0.356752
     9  H    0.004093   0.000483   0.004992  -0.048245   0.379135  -0.041583
    10  H    0.000250   0.005958  -0.049585   0.372156  -0.041244   0.004121
    11  H    0.005608  -0.044877   0.384738  -0.048507   0.005746   0.000254
    12  H   -0.036166   0.362287  -0.052150   0.005427   0.000522   0.003707
               7          8          9         10         11         12
     1  C    0.379749  -0.032520   0.004093   0.000250   0.005608  -0.036166
     2  C   -0.040685   0.002925   0.000483   0.005958  -0.044877   0.362287
     3  C    0.003831   0.000377   0.004992  -0.049585   0.384738  -0.052150
     4  C    0.000378   0.002928  -0.048245   0.372156  -0.048507   0.005427
     5  C    0.003681  -0.035229   0.379135  -0.041244   0.005746   0.000522
     6  C   -0.042677   0.356752  -0.041583   0.004121   0.000254   0.003707
     7  H    0.607289  -0.003003  -0.000162   0.000012  -0.000160  -0.004525
     8  H   -0.003003   0.620256  -0.003836  -0.000094   0.000009  -0.000090
     9  H   -0.000162  -0.003836   0.625800  -0.005838  -0.000266   0.000010
    10  H    0.000012  -0.000094  -0.005838   0.635713  -0.006531  -0.000307
    11  H   -0.000160   0.000009  -0.000266  -0.006531   0.635705  -0.006994
    12  H   -0.004525  -0.000090   0.000010  -0.000307  -0.006994   0.644647
 Mulliken charges:
               1
     1  C   -0.086471
     2  C   -0.094701
     3  C   -0.057599
     4  C   -0.090096
     5  C   -0.081998
     6  C   -0.106641
     7  H    0.096271
     8  H    0.091524
     9  H    0.085417
    10  H    0.085388
    11  H    0.075273
    12  H    0.083633
 Sum of Mulliken charges =  -0.00000
 Mulliken charges with hydrogens summed into heavy atoms:
               1
     1  C    0.009800
     2  C   -0.011068
     3  C    0.017674
     4  C   -0.004708
     5  C    0.003419
     6  C   -0.015117
 Electronic spatial extent (au):  <R**2>=            478.7088
 Charge=             -0.0000 electrons
 Dipole moment (field-independent basis, Debye):
    X=             -0.2320    Y=              0.0208    Z=              0.1363  Tot=              0.2699
 Quadrupole moment (field-independent basis, Debye-Ang):
   XX=            -30.6723   YY=            -31.7831   ZZ=            -38.8238
   XY=              0.2101   XZ=             -0.2569   YZ=             -0.1552
 Traceless Quadrupole moment (field-independent basis, Debye-Ang):
   XX=              3.0874   YY=              1.9766   ZZ=             -5.0641
   XY=              0.2101   XZ=             -0.2569   YZ=             -0.1552
 Octapole moment (field-independent basis, Debye-Ang**2):
  XXX=             -0.9304  YYY=              1.1794  ZZZ=              0.3580  XYY=             -0.9810
  XXY=             -0.1566  XXZ=              1.3279  XZZ=             -0.9661  YZZ=             -0.2888
  YYZ=             -0.1568  XYZ=              0.3504
 Hexadecapole moment (field-independent basis, Debye-Ang**3):
 XXXX=           -285.8037 YYYY=           -279.6799 ZZZZ=            -42.2632 XXXY=              0.1233
 XXXZ=             -2.2401 YYYX=              1.3840 YYYZ=              1.1783 ZZZX=             -0.6519
 ZZZY=             -0.4116 XXYY=            -92.3575 XXZZ=            -64.1323 YYZZ=            -61.5674
 XXYZ=             -2.5483 YYXZ=              0.2821 ZZXY=             -0.0062
 N-N= 1.979713366874D+02 E-N=-9.328687068453D+02  KE= 2.295648080987D+02
 1\1\GINC-DESKTOP-PRN5QE3\SP\RB3LYP TD-FC\6-31G(d,p)\C6H6\SHOHEI\10-Nov
 -2023\0\\# TD=(NStates=1) B3LYP/6-31G(d,p)\\EMISPCT\\0,1\C,0,0.3756945
 765,1.4233586176,-0.036207386\C,0,1.3323365593,0.3889595328,-0.0489048
 732\C,0,1.0378208282,-1.0364091276,0.0915520932\C,0,-0.3355322634,-1.4
 176541326,-0.0855706102\C,0,-1.3733360479,-0.3880418017,0.0001947258\C
 ,0,-1.0383079746,1.0423204593,0.0646891327\H,0,0.6368145441,2.42053155
 41,0.080509848\H,0,-1.9282922014,1.8170263021,0.011322148\H,0,-2.31365
 55028,-0.7498310021,0.0247941002\H,0,-0.518993576,-2.4392402539,-0.110
 0126196\H,0,1.6947672207,-1.657380248,0.3547060019\H,0,2.4454686981,0.
 4740738431,-0.1666222706\\Version=EM64L-G16RevB.01\State=1-A\HF=-232.1
 909641\RMSD=8.516e-09\PG=C01 [X(C6H6)]\\@


 IF THERE IS ONE WAY BETTER THAN ANOTHER IT IS THE WAY OF NATURE.

                          -- ARISTOTLE
 Job cpu time:       0 days  0 hours  3 minutes  3.9 seconds.
 Elapsed time:       0 days  0 hours  0 minutes 46.7 seconds.
 File lengths (MBytes):  RWF=    116 Int=      0 D2E=      0 Chk=      3 Scr=      1
 Normal termination of Gaussian 16 at Fri Nov 10 19:42:17 2023.
