 Entering Gaussian System, Link 0=g16
 Input=Geometry-108-.com
 Output=Geometry-108-.log
 Initial command:
 /home/shohei/gaussian/g16/l1.exe "/home/shohei/gaussian/scratch/Gau-21607.inp" -scrdir="/home/shohei/gaussian/scratch/"
 Entering Link 1 = /home/shohei/gaussian/g16/l1.exe PID=     21609.
  
 Copyright (c) 1988-2017, Gaussian, Inc.  All Rights Reserved.
  
 This is part of the Gaussian(R) 16 program.  It is based on
 the Gaussian(R) 09 system (copyright 2009, Gaussian, Inc.),
 the Gaussian(R) 03 system (copyright 2003, Gaussian, Inc.),
 the Gaussian(R) 98 system (copyright 1998, Gaussian, Inc.),
 the Gaussian(R) 94 system (copyright 1995, Gaussian, Inc.),
 the Gaussian 92(TM) system (copyright 1992, Gaussian, Inc.),
 the Gaussian 90(TM) system (copyright 1990, Gaussian, Inc.),
 the Gaussian 88(TM) system (copyright 1988, Gaussian, Inc.),
 the Gaussian 86(TM) system (copyright 1986, Carnegie Mellon
 University), and the Gaussian 82(TM) system (copyright 1983,
 Carnegie Mellon University). Gaussian is a federally registered
 trademark of Gaussian, Inc.
  
 This software contains proprietary and confidential information,
 including trade secrets, belonging to Gaussian, Inc.
  
 This software is provided under written license and may be
 used, copied, transmitted, or stored only in accord with that
 written license.
  
 The following legend is applicable only to US Government
 contracts under FAR:
  
                    RESTRICTED RIGHTS LEGEND
  
 Use, reproduction and disclosure by the US Government is
 subject to restrictions as set forth in subparagraphs (a)
 and (c) of the Commercial Computer Software - Restricted
 Rights clause in FAR 52.227-19.
  
 Gaussian, Inc.
 340 Quinnipiac St., Bldg. 40, Wallingford CT 06492
  
  
 ---------------------------------------------------------------
 Warning -- This program may not be used in any manner that
 competes with the business of Gaussian, Inc. or will provide
 assistance to any competitor of Gaussian, Inc.  The licensee
 of this program is prohibited from giving any competitor of
 Gaussian, Inc. access to this program.  By using this program,
 the user acknowledges that Gaussian, Inc. is engaged in the
 business of creating and licensing software in the field of
 computational chemistry and represents and warrants to the
 licensee that it is not a competitor of Gaussian, Inc. and that
 it will not use this program in any manner prohibited above.
 ---------------------------------------------------------------
  

 Cite this work as:
 Gaussian 16, Revision B.01,
 M. J. Frisch, G. W. Trucks, H. B. Schlegel, G. E. Scuseria, 
 M. A. Robb, J. R. Cheeseman, G. Scalmani, V. Barone, 
 G. A. Petersson, H. Nakatsuji, X. Li, M. Caricato, A. V. Marenich, 
 J. Bloino, B. G. Janesko, R. Gomperts, B. Mennucci, H. P. Hratchian, 
 J. V. Ortiz, A. F. Izmaylov, J. L. Sonnenberg, D. Williams-Young, 
 F. Ding, F. Lipparini, F. Egidi, J. Goings, B. Peng, A. Petrone, 
 T. Henderson, D. Ranasinghe, V. G. Zakrzewski, J. Gao, N. Rega, 
 G. Zheng, W. Liang, M. Hada, M. Ehara, K. Toyota, R. Fukuda, 
 J. Hasegawa, M. Ishida, T. Nakajima, Y. Honda, O. Kitao, H. Nakai, 
 T. Vreven, K. Throssell, J. A. Montgomery, Jr., J. E. Peralta, 
 F. Ogliaro, M. J. Bearpark, J. J. Heyd, E. N. Brothers, K. N. Kudin, 
 V. N. Staroverov, T. A. Keith, R. Kobayashi, J. Normand, 
 K. Raghavachari, A. P. Rendell, J. C. Burant, S. S. Iyengar, 
 J. Tomasi, M. Cossi, J. M. Millam, M. Klene, C. Adamo, R. Cammi, 
 J. W. Ochterski, R. L. Martin, K. Morokuma, O. Farkas, 
 J. B. Foresman, and D. J. Fox, Gaussian, Inc., Wallingford CT, 2016.
 
 ******************************************
 Gaussian 16:  EM64L-G16RevB.01 20-Dec-2017
                10-Nov-2023 
 ******************************************
 %nproc=4
 Will use up to    4 processors via shared memory.
 %Mem=2Gb
 ---------------------------------
 # TD=(NStates=1) B3LYP/6-31G(d,p)
 ---------------------------------
 1/38=1,172=1/1;
 2/12=2,17=6,18=5,40=1/2;
 3/5=1,6=6,7=101,11=9,25=1,30=1,74=-5/1,2,3,8;
 4//1;
 5/5=2,38=5/2;
 8/6=1,10=2,108=1/1;
 9/41=1,42=1,70=2/14;
 6/7=2,8=2,9=2,10=2/1;
 99/5=1,9=1/99;
 -------
 EMISPCT
 -------
 Symbolic Z-matrix:
 Charge =  0 Multiplicity = 1
 6                     0.35952   1.31556  -0.00302 
 6                     1.33907   0.36418  -0.09732 
 6                     1.02228  -0.98645   0.08813 
 6                    -0.32403  -1.38615   0.01554 
 6                    -1.33323  -0.34026  -0.03921 
 6                    -1.06413   1.03515   0.03836 
 1                     0.67484   2.35268   0.20596 
 1                    -1.79988   1.7895    0.10114 
 1                    -2.33161  -0.7022   -0.24849 
 1                    -0.56304  -2.48069  -0.0124 
 1                     1.77533  -1.78909  -0.11337 
 1                     2.25872   0.81978   0.03322 
 
                          Input orientation:                          
 ---------------------------------------------------------------------
 Center     Atomic      Atomic             Coordinates (Angstroms)
 Number     Number       Type             X           Y           Z
 ---------------------------------------------------------------------
      1          6           0        0.359517    1.315560   -0.003022
      2          6           0        1.339069    0.364184   -0.097315
      3          6           0        1.022285   -0.986452    0.088127
      4          6           0       -0.324033   -1.386152    0.015536
      5          6           0       -1.333231   -0.340256   -0.039208
      6          6           0       -1.064131    1.035149    0.038364
      7          1           0        0.674844    2.352675    0.205957
      8          1           0       -1.799876    1.789498    0.101145
      9          1           0       -2.331614   -0.702200   -0.248485
     10          1           0       -0.563038   -2.480686   -0.012398
     11          1           0        1.775328   -1.789086   -0.113373
     12          1           0        2.258717    0.819781    0.033215
 ---------------------------------------------------------------------
                    Distance matrix (angstroms):
                    1          2          3          4          5
     1  C    0.000000
     2  C    1.368770   0.000000
     3  C    2.397254   1.399628   0.000000
     4  C    2.786904   2.417089   1.406272   0.000000
     5  C    2.368212   2.764200   2.445861   1.454433   0.000000
     6  C    1.451591   2.498795   2.905594   2.531988   1.403627
     7  H    1.103952   2.118317   3.359221   3.874641   3.368137
     8  H    2.213243   3.453098   3.958618   3.502883   2.184790
     9  H    3.372506   3.825434   3.382712   2.137259   1.082391
    10  H    3.906748   3.423231   2.180846   1.120674   2.274941
    11  H    3.414019   2.197078   1.118882   2.141563   3.430415
    12  H    1.963179   1.034582   2.189580   3.396624   3.775318
                    6          7          8          9         10
     6  C    0.000000
     7  H    2.188150   0.000000
     8  H    1.055606   2.540156   0.000000
     9  H    2.169603   4.310171   2.571682   0.000000
    10  H    3.551728   4.994138   4.447149   2.519248   0.000000
    11  H    4.007724   4.297351   5.063039   4.250476   2.440586
    12  H    3.329825   2.210940   4.173385   4.844267   4.342519
                   11         12
    11  H    0.000000
    12  H    2.657319   0.000000
 Stoichiometry    C6H6
 Framework group  C1[X(C6H6)]
 Deg. of freedom    30
 Full point group                 C1      NOp   1
 Largest Abelian subgroup         C1      NOp   1
 Largest concise Abelian subgroup C1      NOp   1
                         Standard orientation:                         
 ---------------------------------------------------------------------
 Center     Atomic      Atomic             Coordinates (Angstroms)
 Number     Number       Type             X           Y           Z
 ---------------------------------------------------------------------
      1          6           0        0.920829    1.005690    0.016994
      2          6           0       -0.407030    1.325691    0.105994
      3          6           0       -1.379111    0.338774   -0.094032
      4          6           0       -0.999185   -1.013735   -0.030965
      5          6           0        0.423520   -1.309682    0.029870
      6          6           0        1.443598   -0.347574   -0.033056
      7          1           0        1.630946    1.827551   -0.180467
      8          1           0        2.474540   -0.566780   -0.091471
      9          1           0        0.648883   -2.348986    0.231433
     10          1           0       -1.797483   -1.800098   -0.014786
     11          1           0       -2.460964    0.545633    0.102690
     12          1           0       -0.511656    2.347687   -0.016232
 ---------------------------------------------------------------------
 Rotational constants (GHZ):           5.7672820           5.4051272           2.8017829
 Standard basis: 6-31G(d,p) (6D, 7F)
 There are   120 symmetry adapted cartesian basis functions of A   symmetry.
 There are   120 symmetry adapted basis functions of A   symmetry.
   120 basis functions,   210 primitive gaussians,   120 cartesian basis functions
    21 alpha electrons       21 beta electrons
       nuclear repulsion energy       201.5471121961 Hartrees.
 NAtoms=   12 NActive=   12 NUniq=   12 SFac= 1.00D+00 NAtFMM=   60 NAOKFM=F Big=F
 Integral buffers will be    131072 words long.
 Regular integral format.
 Two-electron integral symmetry is turned on.
 One-electron integrals computed using PRISM.
 NBasis=   120 RedAO= T EigKep=  9.22D-04  NBF=   120
 NBsUse=   120 1.00D-06 EigRej= -1.00D+00 NBFU=   120
 ExpMin= 1.61D-01 ExpMax= 3.05D+03 ExpMxC= 4.57D+02 IAcc=3 IRadAn=         5 AccDes= 0.00D+00
 Harris functional with IExCor=  402 and IRadAn=       5 diagonalized for initial guess.
 HarFok:  IExCor=  402 AccDes= 0.00D+00 IRadAn=         5 IDoV= 1 UseB2=F ITyADJ=14
 ICtDFT=  3500011 ScaDFX=  1.000000  1.000000  1.000000  1.000000
 FoFCou: FMM=F IPFlag=           0 FMFlag=      100000 FMFlg1=           0
         NFxFlg=           0 DoJE=T BraDBF=F KetDBF=T FulRan=T
         wScrn=  0.000000 ICntrl=       500 IOpCl=  0 I1Cent=   200000004 NGrid=           0
         NMat0=    1 NMatS0=      1 NMatT0=    0 NMatD0=    1 NMtDS0=    0 NMtDT0=    0
 Petite list used in FoFCou.
 Keep R1 ints in memory in canonical form, NReq=30147728.
 Requested convergence on RMS density matrix=1.00D-08 within 128 cycles.
 Requested convergence on MAX density matrix=1.00D-06.
 Requested convergence on             energy=1.00D-06.
 No special actions if energy rises.
 Integral accuracy reduced to 1.0D-05 until final iterations.
 Initial convergence to 1.0D-05 achieved.  Increase integral accuracy.
 SCF Done:  E(RB3LYP) =  -232.227936659     A.U. after   13 cycles
            NFock= 13  Conv=0.54D-08     -V/T= 2.0108
 DoSCS=F DFT=T ScalE2(SS,OS)=  1.000000  1.000000
 ExpMin= 1.61D-01 ExpMax= 3.05D+03 ExpMxC= 4.57D+02 IAcc=3 IRadAn=         5 AccDes= 0.00D+00
 HarFok:  IExCor=  205 AccDes= 0.00D+00 IRadAn=         5 IDoV=-2 UseB2=F ITyADJ=14
 ICtDFT= 12500011 ScaDFX=  1.000000  1.000000  1.000000  1.000000
 Range of M.O.s used for correlation:     7   120
 NBasis=   120 NAE=    21 NBE=    21 NFC=     6 NFV=     0
 NROrb=    114 NOA=    15 NOB=    15 NVA=    99 NVB=    99
 Keep R1, R2, and R3 ints in memory in canonical form, NReq=84032236.
 Orbital symmetries:
       Occupied  (A) (A) (A) (A) (A) (A) (A) (A) (A) (A) (A) (A)
                 (A) (A) (A) (A) (A) (A) (A) (A) (A)
       Virtual   (A) (A) (A) (A) (A) (A) (A) (A) (A) (A) (A) (A)
                 (A) (A) (A) (A) (A) (A) (A) (A) (A) (A) (A) (A)
                 (A) (A) (A) (A) (A) (A) (A) (A) (A) (A) (A) (A)
                 (A) (A) (A) (A) (A) (A) (A) (A) (A) (A) (A) (A)
                 (A) (A) (A) (A) (A) (A) (A) (A) (A) (A) (A) (A)
                 (A) (A) (A) (A) (A) (A) (A) (A) (A) (A) (A) (A)
                 (A) (A) (A) (A) (A) (A) (A) (A) (A) (A) (A) (A)
                 (A) (A) (A) (A) (A) (A) (A) (A) (A) (A) (A) (A)
                 (A) (A) (A)
     4 initial guesses have been made.
 Convergence on wavefunction:    0.001000000000000
 Iteration     1 Dimension     4 NMult     0 NNew      4
 CISAX will form     4 AO SS matrices at one time.
 Iteration     2 Dimension     6 NMult     4 NNew      2
 Iteration     3 Dimension     8 NMult     6 NNew      2
 Iteration     4 Dimension    10 NMult     8 NNew      2
 Iteration     5 Dimension    12 NMult    10 NNew      2
 ***********************************************************************
 Excited states from <AA,BB:AA,BB> singles matrix:
 ***********************************************************************
 
 Ground to excited state transition densities written to RWF  633
 Ground to excited state transition electric dipole moments (Au):
       state          X           Y           Z        Dip. S.      Osc.
         1        -0.0194     -0.1269     -0.0034      0.0165      0.0021
 Ground to excited state transition velocity dipole moments (Au):
       state          X           Y           Z        Dip. S.      Osc.
         1         0.0039      0.0268      0.0009      0.0007      0.0025
 Ground to excited state transition magnetic dipole moments (Au):
       state          X           Y           Z
         1         0.0162     -0.0009     -0.0626
 Ground to excited state transition velocity quadrupole moments (Au):
       state          XX          YY          ZZ          XY          XZ          YZ
         1         0.0163      0.0016     -0.0075     -0.0094      0.0169      0.0091
 <0|del|b> * <b|rxdel|0> + <0|del|b> * <b|delr+rdel|0>
 Rotatory Strengths (R) in cgs (10**-40 erg-esu-cm/Gauss)
       state          XX          YY          ZZ    R(velocity)    E-M Angle
         1        -0.9985      0.0901      0.8389     -0.0232       90.00
 1/2[<0|r|b>*<b|rxdel|0> + (<0|rxdel|b>*<b|r|0>)*]
 Rotatory Strengths (R) in cgs (10**-40 erg-esu-cm/Gauss)
       state          XX          YY          ZZ     R(length)
         1         0.2221     -0.0809     -0.1519     -0.0035
  1/2[<0|del|b>*<b|r|0> + (<0|r|b>*<b|del|0>)*] (Au)
       state          X           Y           Z        Dip. S.   Osc.(frdel)
         1        -0.0001     -0.0034     -0.0000      0.0035      0.0023

 Excitation energies and oscillator strengths:
 
 Excited State   1:      Singlet-A      5.2402 eV  236.60 nm  f=0.0021  <S**2>=0.000
      20 -> 22         0.30645
      20 -> 23         0.36548
      21 -> 22         0.43762
      21 -> 23        -0.28393
 This state for optimization and/or second-order correction.
 Total Energy, E(TD-HF/TD-DFT) =  -232.035364558    
 Copying the excited state density for this state as the 1-particle RhoCI density.
 SavETr:  write IOETrn=   770 NScale= 10 NData=  16 NLR=1 NState=    1 LETran=      28.

 **********************************************************************

            Population analysis using the SCF Density.

 **********************************************************************

 Orbital symmetries:
       Occupied  (A) (A) (A) (A) (A) (A) (A) (A) (A) (A) (A) (A)
                 (A) (A) (A) (A) (A) (A) (A) (A) (A)
       Virtual   (A) (A) (A) (A) (A) (A) (A) (A) (A) (A) (A) (A)
                 (A) (A) (A) (A) (A) (A) (A) (A) (A) (A) (A) (A)
                 (A) (A) (A) (A) (A) (A) (A) (A) (A) (A) (A) (A)
                 (A) (A) (A) (A) (A) (A) (A) (A) (A) (A) (A) (A)
                 (A) (A) (A) (A) (A) (A) (A) (A) (A) (A) (A) (A)
                 (A) (A) (A) (A) (A) (A) (A) (A) (A) (A) (A) (A)
                 (A) (A) (A) (A) (A) (A) (A) (A) (A) (A) (A) (A)
                 (A) (A) (A) (A) (A) (A) (A) (A) (A) (A) (A) (A)
                 (A) (A) (A)
 The electronic state is 1-A.
 Alpha  occ. eigenvalues --  -10.19906 -10.19563 -10.19462 -10.19437 -10.19011
 Alpha  occ. eigenvalues --  -10.17999  -0.84178  -0.74120  -0.73548  -0.60253
 Alpha  occ. eigenvalues --   -0.58880  -0.51660  -0.46111  -0.43752  -0.41745
 Alpha  occ. eigenvalues --   -0.41042  -0.35906  -0.33939  -0.32869  -0.24703
 Alpha  occ. eigenvalues --   -0.24272
 Alpha virt. eigenvalues --   -0.01010  -0.00200   0.09072   0.13550   0.14494
 Alpha virt. eigenvalues --    0.14994   0.17339   0.17636   0.19878   0.27748
 Alpha virt. eigenvalues --    0.28694   0.31590   0.31913   0.46182   0.47750
 Alpha virt. eigenvalues --    0.52839   0.54605   0.56091   0.58225   0.58919
 Alpha virt. eigenvalues --    0.60516   0.60846   0.61858   0.62877   0.64020
 Alpha virt. eigenvalues --    0.66627   0.66738   0.73761   0.77588   0.81310
 Alpha virt. eigenvalues --    0.81792   0.83941   0.86691   0.91598   0.92070
 Alpha virt. eigenvalues --    0.93162   0.95018   0.99929   1.05182   1.08984
 Alpha virt. eigenvalues --    1.10049   1.12443   1.21139   1.29271   1.33349
 Alpha virt. eigenvalues --    1.39183   1.40802   1.42141   1.49945   1.53384
 Alpha virt. eigenvalues --    1.70273   1.74013   1.79161   1.81166   1.86788
 Alpha virt. eigenvalues --    1.91086   1.93360   1.94552   1.98978   1.99949
 Alpha virt. eigenvalues --    2.02220   2.06337   2.08661   2.22108   2.25971
 Alpha virt. eigenvalues --    2.29662   2.33338   2.37135   2.39320   2.41385
 Alpha virt. eigenvalues --    2.42919   2.44928   2.47158   2.48873   2.50476
 Alpha virt. eigenvalues --    2.51336   2.53413   2.58893   2.61115   2.65361
 Alpha virt. eigenvalues --    2.73382   2.74113   2.83191   2.98926   3.01893
 Alpha virt. eigenvalues --    3.08718   3.21394   3.25148   3.30072   3.36753
 Alpha virt. eigenvalues --    3.45771   3.56915   3.86159   4.11510   4.16201
 Alpha virt. eigenvalues --    4.17849   4.43764   4.44370   4.78523
          Condensed to atoms (all electrons):
               1          2          3          4          5          6
     1  C    4.858011   0.557601  -0.030875  -0.043168  -0.030068   0.508321
     2  C    0.557601   4.797396   0.520827  -0.040157  -0.039518  -0.037358
     3  C   -0.030875   0.520827   4.858085   0.531786  -0.032489  -0.035868
     4  C   -0.043168  -0.040157   0.531786   4.863512   0.517690  -0.033011
     5  C   -0.030068  -0.039518  -0.032489   0.517690   4.832867   0.548830
     6  C    0.508321  -0.037358  -0.035868  -0.033011   0.548830   4.820626
     7  H    0.363362  -0.042804   0.005674   0.000741   0.004908  -0.043457
     8  H   -0.041265   0.004828  -0.000042   0.003983  -0.042326   0.378259
     9  H    0.005749   0.000521   0.005781  -0.046765   0.365498  -0.046120
    10  H    0.000259   0.004260  -0.040783   0.369267  -0.034740   0.003310
    11  H    0.004678  -0.040002   0.360847  -0.041053   0.004741   0.000619
    12  H   -0.047031   0.376992  -0.043325   0.004643   0.000549   0.006153
               7          8          9         10         11         12
     1  C    0.363362  -0.041265   0.005749   0.000259   0.004678  -0.047031
     2  C   -0.042804   0.004828   0.000521   0.004260  -0.040002   0.376992
     3  C    0.005674  -0.000042   0.005781  -0.040783   0.360847  -0.043325
     4  C    0.000741   0.003983  -0.046765   0.369267  -0.041053   0.004643
     5  C    0.004908  -0.042326   0.365498  -0.034740   0.004741   0.000549
     6  C   -0.043457   0.378259  -0.046120   0.003310   0.000619   0.006153
     7  H    0.648557  -0.004406  -0.000218   0.000011  -0.000187  -0.012056
     8  H   -0.004406   0.611105  -0.005255  -0.000089   0.000013  -0.000213
     9  H   -0.000218  -0.005255   0.645558  -0.005527  -0.000211   0.000015
    10  H    0.000011  -0.000089  -0.005527   0.615987  -0.006065  -0.000165
    11  H   -0.000187   0.000013  -0.000211  -0.006065   0.635737  -0.004168
    12  H   -0.012056  -0.000213   0.000015  -0.000165  -0.004168   0.632701
 Mulliken charges:
               1
     1  C   -0.105574
     2  C   -0.062586
     3  C   -0.099617
     4  C   -0.087469
     5  C   -0.095942
     6  C   -0.070305
     7  H    0.079875
     8  H    0.095409
     9  H    0.080975
    10  H    0.094276
    11  H    0.085053
    12  H    0.085906
 Sum of Mulliken charges =  -0.00000
 Mulliken charges with hydrogens summed into heavy atoms:
               1
     1  C   -0.025699
     2  C    0.023320
     3  C   -0.014564
     4  C    0.006807
     5  C   -0.014968
     6  C    0.025104
 Electronic spatial extent (au):  <R**2>=            464.1897
 Charge=             -0.0000 electrons
 Dipole moment (field-independent basis, Debye):
    X=              0.1103    Y=             -0.0665    Z=              0.0092  Tot=              0.1291
 Quadrupole moment (field-independent basis, Debye-Ang):
   XX=            -31.3246   YY=            -31.9552   ZZ=            -38.6015
   XY=              0.4406   XZ=             -0.5352   YZ=             -0.6486
 Traceless Quadrupole moment (field-independent basis, Debye-Ang):
   XX=              2.6358   YY=              2.0052   ZZ=             -4.6411
   XY=              0.4406   XZ=             -0.5352   YZ=             -0.6486
 Octapole moment (field-independent basis, Debye-Ang**2):
  XXX=              1.3436  YYY=              1.0040  ZZZ=              0.0327  XYY=             -0.1154
  XXY=             -1.7593  XXZ=             -0.0612  XZZ=              0.2096  YZZ=              0.2038
  YYZ=              0.1527  XYZ=             -0.6415
 Hexadecapole moment (field-independent basis, Debye-Ang**3):
 XXXX=           -277.5372 YYYY=           -269.5051 ZZZZ=            -41.4725 XXXY=              0.1689
 XXXZ=             -4.0270 YYYX=              3.3060 YYYZ=             -4.3367 ZZZX=             -0.5431
 ZZZY=             -0.7015 XXYY=            -93.5619 XXZZ=            -62.7750 YYZZ=            -59.6708
 XXYZ=             -0.3510 YYXZ=             -0.3108 ZZXY=             -0.1470
 N-N= 2.015471121961D+02 E-N=-9.402517361892D+02  KE= 2.297576994308D+02
 1\1\GINC-DESKTOP-PRN5QE3\SP\RB3LYP TD-FC\6-31G(d,p)\C6H6\SHOHEI\10-Nov
 -2023\0\\# TD=(NStates=1) B3LYP/6-31G(d,p)\\EMISPCT\\0,1\C,0,0.3595166
 969,1.3155602644,-0.0030215218\C,0,1.3390692629,0.3641838273,-0.097315
 4765\C,0,1.0222847476,-0.9864517926,0.0881267861\C,0,-0.3240333337,-1.
 3861516115,0.0155362032\C,0,-1.3332306879,-0.3402559369,-0.0392077002\
 C,0,-1.0641313504,1.0351487817,0.0383642575\H,0,0.6748443535,2.3526751
 615,0.2059573895\H,0,-1.7998756819,1.7894982168,0.1011448774\H,0,-2.33
 16140072,-0.7022002661,-0.2484850908\H,0,-0.5630379643,-2.4806863787,-
 0.0123978291\H,0,1.7753275796,-1.7890861794,-0.1133734001\H,0,2.258717
 3988,0.8197812371,0.0332152271\\Version=EM64L-G16RevB.01\State=1-A\HF=
 -232.2279367\RMSD=5.399e-09\PG=C01 [X(C6H6)]\\@


 A SLIP OF THE FOOT YOU MAY SOON RECOVER, BUT A SLIP OF THE TONGUE
 YOU MAY NEVER GET OVER. -- BEN FRANKLIN
 Job cpu time:       0 days  0 hours  3 minutes  7.8 seconds.
 Elapsed time:       0 days  0 hours  0 minutes 47.6 seconds.
 File lengths (MBytes):  RWF=    116 Int=      0 D2E=      0 Chk=      3 Scr=      1
 Normal termination of Gaussian 16 at Fri Nov 10 21:02:11 2023.
