 Entering Gaussian System, Link 0=g16
 Input=5.com
 Output=5.log
 Initial command:
 /usr/local/g16/l1.exe "/home/joao/Curso_de_Fisica/nono_semestre/5/Gau-29516.inp" -scrdir="/home/joao/Curso_de_Fisica/nono_semestre/5/"
 Entering Link 1 = /usr/local/g16/l1.exe PID=     29518.
  
 Copyright (c) 1988-2017, Gaussian, Inc.  All Rights Reserved.
  
 This is part of the Gaussian(R) 16 program.  It is based on
 the Gaussian(R) 09 system (copyright 2009, Gaussian, Inc.),
 the Gaussian(R) 03 system (copyright 2003, Gaussian, Inc.),
 the Gaussian(R) 98 system (copyright 1998, Gaussian, Inc.),
 the Gaussian(R) 94 system (copyright 1995, Gaussian, Inc.),
 the Gaussian 92(TM) system (copyright 1992, Gaussian, Inc.),
 the Gaussian 90(TM) system (copyright 1990, Gaussian, Inc.),
 the Gaussian 88(TM) system (copyright 1988, Gaussian, Inc.),
 the Gaussian 86(TM) system (copyright 1986, Carnegie Mellon
 University), and the Gaussian 82(TM) system (copyright 1983,
 Carnegie Mellon University). Gaussian is a federally registered
 trademark of Gaussian, Inc.
  
 This software contains proprietary and confidential information,
 including trade secrets, belonging to Gaussian, Inc.
  
 This software is provided under written license and may be
 used, copied, transmitted, or stored only in accord with that
 written license.
  
 The following legend is applicable only to US Government
 contracts under FAR:
  
                    RESTRICTED RIGHTS LEGEND
  
 Use, reproduction and disclosure by the US Government is
 subject to restrictions as set forth in subparagraphs (a)
 and (c) of the Commercial Computer Software - Restricted
 Rights clause in FAR 52.227-19.
  
 Gaussian, Inc.
 340 Quinnipiac St., Bldg. 40, Wallingford CT 06492
  
  
 ---------------------------------------------------------------
 Warning -- This program may not be used in any manner that
 competes with the business of Gaussian, Inc. or will provide
 assistance to any competitor of Gaussian, Inc.  The licensee
 of this program is prohibited from giving any competitor of
 Gaussian, Inc. access to this program.  By using this program,
 the user acknowledges that Gaussian, Inc. is engaged in the
 business of creating and licensing software in the field of
 computational chemistry and represents and warrants to the
 licensee that it is not a competitor of Gaussian, Inc. and that
 it will not use this program in any manner prohibited above.
 ---------------------------------------------------------------
  

 Cite this work as:
 Gaussian 16, Revision B.01,
 M. J. Frisch, G. W. Trucks, H. B. Schlegel, G. E. Scuseria, 
 M. A. Robb, J. R. Cheeseman, G. Scalmani, V. Barone, 
 G. A. Petersson, H. Nakatsuji, X. Li, M. Caricato, A. V. Marenich, 
 J. Bloino, B. G. Janesko, R. Gomperts, B. Mennucci, H. P. Hratchian, 
 J. V. Ortiz, A. F. Izmaylov, J. L. Sonnenberg, D. Williams-Young, 
 F. Ding, F. Lipparini, F. Egidi, J. Goings, B. Peng, A. Petrone, 
 T. Henderson, D. Ranasinghe, V. G. Zakrzewski, J. Gao, N. Rega, 
 G. Zheng, W. Liang, M. Hada, M. Ehara, K. Toyota, R. Fukuda, 
 J. Hasegawa, M. Ishida, T. Nakajima, Y. Honda, O. Kitao, H. Nakai, 
 T. Vreven, K. Throssell, J. A. Montgomery, Jr., J. E. Peralta, 
 F. Ogliaro, M. J. Bearpark, J. J. Heyd, E. N. Brothers, K. N. Kudin, 
 V. N. Staroverov, T. A. Keith, R. Kobayashi, J. Normand, 
 K. Raghavachari, A. P. Rendell, J. C. Burant, S. S. Iyengar, 
 J. Tomasi, M. Cossi, J. M. Millam, M. Klene, C. Adamo, R. Cammi, 
 J. W. Ochterski, R. L. Martin, K. Morokuma, O. Farkas, 
 J. B. Foresman, and D. J. Fox, Gaussian, Inc., Wallingford CT, 2016.
 
 ******************************************
 Gaussian 16:  EM64L-G16RevB.01 20-Dec-2017
                 3-Oct-2023 
 ******************************************
 -----------------------
 #n B3LYP/6-31G(d,p) OPT
 -----------------------
 1/18=20,19=15,26=3,38=1/1,3;
 2/9=110,12=2,17=6,18=5,40=1/2;
 3/5=1,6=6,7=101,11=2,25=1,30=1,71=1,74=-5/1,2,3;
 4//1;
 5/5=2,38=5/2;
 6/7=2,8=2,9=2,10=2,28=1/1;
 7//1,2,3,16;
 1/18=20,19=15,26=3/3(2);
 2/9=110/2;
 99//99;
 2/9=110/2;
 3/5=1,6=6,7=101,11=2,25=1,30=1,71=1,74=-5/1,2,3;
 4/5=5,16=3,69=1/1;
 5/5=2,38=5/2;
 7//1,2,3,16;
 1/18=20,19=15,26=3/3(-5);
 2/9=110/2;
 6/7=2,8=2,9=2,10=2,19=2,28=1/1;
 99/9=1/99;
 -
 5
 -
 Symbolic Z-matrix:
 Charge =  0 Multiplicity = 1
 C                    -4.93297   1.24247   0.00056 
 C                    -3.79616   1.94234   0.00063 
 C                    -2.48259   1.26643   0.00036 
 C                    -1.34453   1.97291   0.00043 
 C                    -0.03003   1.29768   0.00016 
 C                     1.10784   2.00458   0.00023 
 C                     2.42256   1.32981  -0.00004 
 C                     3.56017   2.03704   0.00002 
 C                     4.87432   1.36229  -0.00025 
 C                     6.01044   2.06329  -0.00019 
 H                    -5.88748   1.75883   0.00076 
 H                    -4.92493   0.15645   0.00031 
 H                    -3.8471    3.02789   0.00089 
 H                    -2.44439   0.1794    0.00011 
 H                    -1.38381   3.0599    0.00069 
 H                     0.00929   0.2107   -0.00009 
 H                     1.06836   3.09155   0.00049 
 H                     2.46241   0.24284  -0.0003 
 H                     3.52117   3.12404   0.00028 
 H                     4.92626   0.27679  -0.00051 
 H                     6.00129   3.14931   0.00006 
 H                     6.96549   1.54795  -0.00039 
 

 GradGradGradGradGradGradGradGradGradGradGradGradGradGradGradGradGradGrad
 Berny optimization.
 Initialization pass.
                           ----------------------------
                           !    Initial Parameters    !
                           ! (Angstroms and Degrees)  !
 --------------------------                            --------------------------
 ! Name  Definition              Value          Derivative Info.                !
 --------------------------------------------------------------------------------
 ! R1    R(1,2)                  1.335          estimate D2E/DX2                !
 ! R2    R(1,11)                 1.0852         estimate D2E/DX2                !
 ! R3    R(1,12)                 1.0861         estimate D2E/DX2                !
 ! R4    R(2,3)                  1.4773         estimate D2E/DX2                !
 ! R5    R(2,13)                 1.0867         estimate D2E/DX2                !
 ! R6    R(3,4)                  1.3395         estimate D2E/DX2                !
 ! R7    R(3,14)                 1.0877         estimate D2E/DX2                !
 ! R8    R(4,5)                  1.4778         estimate D2E/DX2                !
 ! R9    R(4,15)                 1.0877         estimate D2E/DX2                !
 ! R10   R(5,6)                  1.3396         estimate D2E/DX2                !
 ! R11   R(5,16)                 1.0877         estimate D2E/DX2                !
 ! R12   R(6,7)                  1.4778         estimate D2E/DX2                !
 ! R13   R(6,17)                 1.0877         estimate D2E/DX2                !
 ! R14   R(7,8)                  1.3395         estimate D2E/DX2                !
 ! R15   R(7,18)                 1.0877         estimate D2E/DX2                !
 ! R16   R(8,9)                  1.4773         estimate D2E/DX2                !
 ! R17   R(8,19)                 1.0877         estimate D2E/DX2                !
 ! R18   R(9,10)                 1.335          estimate D2E/DX2                !
 ! R19   R(9,20)                 1.0867         estimate D2E/DX2                !
 ! R20   R(10,21)                1.0861         estimate D2E/DX2                !
 ! R21   R(10,22)                1.0852         estimate D2E/DX2                !
 ! A1    A(2,1,11)             119.9702         estimate D2E/DX2                !
 ! A2    A(2,1,12)             121.1935         estimate D2E/DX2                !
 ! A3    A(11,1,12)            118.8363         estimate D2E/DX2                !
 ! A4    A(1,2,3)              121.1537         estimate D2E/DX2                !
 ! A5    A(1,2,13)             118.9318         estimate D2E/DX2                !
 ! A6    A(3,2,13)             119.9144         estimate D2E/DX2                !
 ! A7    A(2,3,4)              120.9407         estimate D2E/DX2                !
 ! A8    A(2,3,14)             119.2409         estimate D2E/DX2                !
 ! A9    A(4,3,14)             119.8184         estimate D2E/DX2                !
 ! A10   A(3,4,5)              120.9799         estimate D2E/DX2                !
 ! A11   A(3,4,15)             119.7611         estimate D2E/DX2                !
 ! A12   A(5,4,15)             119.259          estimate D2E/DX2                !
 ! A13   A(4,5,6)              120.9603         estimate D2E/DX2                !
 ! A14   A(4,5,16)             119.2607         estimate D2E/DX2                !
 ! A15   A(6,5,16)             119.779          estimate D2E/DX2                !
 ! A16   A(5,6,7)              120.9804         estimate D2E/DX2                !
 ! A17   A(5,6,17)             119.7706         estimate D2E/DX2                !
 ! A18   A(7,6,17)             119.249          estimate D2E/DX2                !
 ! A19   A(6,7,8)              120.9627         estimate D2E/DX2                !
 ! A20   A(6,7,18)             119.2684         estimate D2E/DX2                !
 ! A21   A(8,7,18)             119.7689         estimate D2E/DX2                !
 ! A22   A(7,8,9)              120.9535         estimate D2E/DX2                !
 ! A23   A(7,8,19)             119.8135         estimate D2E/DX2                !
 ! A24   A(9,8,19)             119.233          estimate D2E/DX2                !
 ! A25   A(8,9,10)             121.1468         estimate D2E/DX2                !
 ! A26   A(8,9,20)             119.9179         estimate D2E/DX2                !
 ! A27   A(10,9,20)            118.9353         estimate D2E/DX2                !
 ! A28   A(9,10,21)            121.1922         estimate D2E/DX2                !
 ! A29   A(9,10,22)            119.9735         estimate D2E/DX2                !
 ! A30   A(21,10,22)           118.8343         estimate D2E/DX2                !
 ! D1    D(11,1,2,3)          -180.0            estimate D2E/DX2                !
 ! D2    D(11,1,2,13)            0.0            estimate D2E/DX2                !
 ! D3    D(12,1,2,3)             0.0            estimate D2E/DX2                !
 ! D4    D(12,1,2,13)          180.0            estimate D2E/DX2                !
 ! D5    D(1,2,3,4)            179.9999         estimate D2E/DX2                !
 ! D6    D(1,2,3,14)             0.0            estimate D2E/DX2                !
 ! D7    D(13,2,3,4)             0.0            estimate D2E/DX2                !
 ! D8    D(13,2,3,14)          180.0            estimate D2E/DX2                !
 ! D9    D(2,3,4,5)           -180.0            estimate D2E/DX2                !
 ! D10   D(2,3,4,15)             0.0            estimate D2E/DX2                !
 ! D11   D(14,3,4,5)             0.0            estimate D2E/DX2                !
 ! D12   D(14,3,4,15)          180.0            estimate D2E/DX2                !
 ! D13   D(3,4,5,6)            179.9999         estimate D2E/DX2                !
 ! D14   D(3,4,5,16)            -0.0001         estimate D2E/DX2                !
 ! D15   D(15,4,5,6)            -0.0001         estimate D2E/DX2                !
 ! D16   D(15,4,5,16)          180.0            estimate D2E/DX2                !
 ! D17   D(4,5,6,7)           -179.9999         estimate D2E/DX2                !
 ! D18   D(4,5,6,17)             0.0            estimate D2E/DX2                !
 ! D19   D(16,5,6,7)             0.0            estimate D2E/DX2                !
 ! D20   D(16,5,6,17)          180.0            estimate D2E/DX2                !
 ! D21   D(5,6,7,8)            179.9999         estimate D2E/DX2                !
 ! D22   D(5,6,7,18)            -0.0001         estimate D2E/DX2                !
 ! D23   D(17,6,7,8)            -0.0001         estimate D2E/DX2                !
 ! D24   D(17,6,7,18)          180.0            estimate D2E/DX2                !
 ! D25   D(6,7,8,9)           -180.0            estimate D2E/DX2                !
 ! D26   D(6,7,8,19)             0.0            estimate D2E/DX2                !
 ! D27   D(18,7,8,9)             0.0            estimate D2E/DX2                !
 ! D28   D(18,7,8,19)          180.0            estimate D2E/DX2                !
 ! D29   D(7,8,9,10)           179.9999         estimate D2E/DX2                !
 ! D30   D(7,8,9,20)             0.0            estimate D2E/DX2                !
 ! D31   D(19,8,9,10)            0.0            estimate D2E/DX2                !
 ! D32   D(19,8,9,20)          180.0            estimate D2E/DX2                !
 ! D33   D(8,9,10,21)            0.0            estimate D2E/DX2                !
 ! D34   D(8,9,10,22)         -180.0            estimate D2E/DX2                !
 ! D35   D(20,9,10,21)         180.0            estimate D2E/DX2                !
 ! D36   D(20,9,10,22)           0.0            estimate D2E/DX2                !
 --------------------------------------------------------------------------------
 Trust Radius=3.00D-01 FncErr=1.00D-07 GrdErr=1.00D-06 EigMax=2.50D+02 EigMin=1.00D-04
 Number of steps in this run=     97 maximum allowed number of steps=    132.
 GradGradGradGradGradGradGradGradGradGradGradGradGradGradGradGradGradGrad

                          Input orientation:                          
 ---------------------------------------------------------------------
 Center     Atomic      Atomic             Coordinates (Angstroms)
 Number     Number       Type             X           Y           Z
 ---------------------------------------------------------------------
      1          6           0       -4.932974    1.242473    0.000564
      2          6           0       -3.796165    1.942338    0.000633
      3          6           0       -2.482587    1.266433    0.000363
      4          6           0       -1.344527    1.972915    0.000433
      5          6           0       -0.030033    1.297676    0.000162
      6          6           0        1.107836    2.004579    0.000229
      7          6           0        2.422558    1.329805   -0.000042
      8          6           0        3.560168    2.037035    0.000023
      9          6           0        4.874319    1.362289   -0.000250
     10          6           0        6.010441    2.063291   -0.000188
     11          1           0       -5.887483    1.758826    0.000765
     12          1           0       -4.924926    0.156453    0.000308
     13          1           0       -3.847097    3.027891    0.000892
     14          1           0       -2.444386    0.179401    0.000105
     15          1           0       -1.383814    3.059904    0.000690
     16          1           0        0.009286    0.210700   -0.000095
     17          1           0        1.068357    3.091547    0.000486
     18          1           0        2.462406    0.242836   -0.000298
     19          1           0        3.521166    3.124042    0.000278
     20          1           0        4.926264    0.276789   -0.000506
     21          1           0        6.001287    3.149313    0.000065
     22          1           0        6.965488    1.547946   -0.000391
 ---------------------------------------------------------------------
                    Distance matrix (angstroms):
                    1          2          3          4          5
     1  C    0.000000
     2  C    1.334970   0.000000
     3  C    2.450504   1.477272   0.000000
     4  C    3.662035   2.451829   1.339514   0.000000
     5  C    4.903252   3.820908   2.452753   1.477783   0.000000
     6  C    6.088694   4.904396   3.665515   2.452567   1.339574
     7  C    7.356050   6.248817   4.905554   3.821586   2.452801
     8  C    8.530228   7.356942   6.091692   4.905114   3.665542
     9  C    9.808024   8.689864   7.357530   6.248752   4.904777
    10  C   10.974155   9.807352   8.530329   7.355523   6.088801
    11  H    1.085222   2.099354   3.440315   4.547998   5.875575
    12  H    1.086050   2.112697   2.682737   4.014822   5.026168
    13  H    2.089700   1.086748   2.228143   2.715848   4.190897
    14  H    2.706140   2.221543   1.087703   2.103897   2.660759
    15  H    3.987429   2.658644   2.103292   1.087699   2.222200
    16  H    5.048811   4.180912   2.706290   2.222208   1.087686
    17  H    6.279733   4.998425   3.992523   2.659576   2.103434
    18  H    7.462635   6.485215   5.049822   4.181615   2.706462
    19  H    8.660992   7.412136   6.284565   5.000006   3.993323
    20  H    9.906419   8.880024   7.474655   6.496127   5.060345
    21  H   11.099284   9.871518   8.690303   7.439415   6.309151
    22  H   11.902382  10.768877   9.452268   8.320874   6.999996
                    6          7          8          9         10
     6  C    0.000000
     7  C    1.477773   0.000000
     8  C    2.452547   1.339527   0.000000
     9  C    3.820854   2.451976   1.477252   0.000000
    10  C    4.902956   3.662091   2.450414   1.334983   0.000000
    11  H    6.999635   8.321108   9.451747  10.769105  11.901819
    12  H    6.309500   7.440583   8.690996   9.873157  11.100373
    13  H    5.059499   6.495542   7.473243   8.879038   9.904620
    14  H    3.993690   5.001057   6.285338   7.413680   8.662167
    15  H    2.705926   4.181114   5.048685   6.484298   7.461116
    16  H    2.103524   2.660127   3.993026   4.999469   6.280601
    17  H    1.087685   2.222070   2.705756   4.180392   5.047921
    18  H    2.222295   1.087699   2.103386   2.659041   3.987808
    19  H    2.660330   2.103859   1.087706   2.221439   2.705861
    20  H    4.191139   2.716135   2.228157   1.086742   2.089743
    21  H    5.025563   4.014712   2.682578   2.112703   1.086061
    22  H    5.875423   4.548164   3.440263   2.099395   1.085216
                   11         12         13         14         15
    11  H    0.000000
    12  H    1.869255   0.000000
    13  H    2.402853   3.067063   0.000000
    14  H    3.788074   2.480646   3.175137   0.000000
    15  H    4.687839   4.579247   2.463490   3.069546   0.000000
    16  H    6.096604   4.934511   4.775799   2.453872   3.171544
    17  H    7.082363   6.673396   4.915866   4.562889   2.452376
    18  H    8.486393   7.387837   6.896836   4.907202   4.767523
    19  H    9.507181   8.952265   7.368890   6.652723   4.905400
    20  H   10.914833   9.851925   9.194587   7.371294   6.896580
    21  H   11.969809  11.328696   9.849133   8.952641   7.385643
    22  H   12.854701  11.971558  10.913396   9.508871   8.485096
                   16         17         18         19         20
    16  H    0.000000
    17  H    3.069350   0.000000
    18  H    2.453330   3.171517   0.000000
    19  H    4.562988   2.453024   3.069579   0.000000
    20  H    4.917422   4.775595   2.464093   3.175082   0.000000
    21  H    6.673794   4.933269   4.579442   2.480250   3.067094
    22  H    7.083570   6.095806   4.688396   3.787800   2.402971
                   21         22
    21  H    0.000000
    22  H    1.869240   0.000000
 Stoichiometry    C10H12
 Framework group  C1[X(C10H12)]
 Deg. of freedom    60
 Full point group                 C1      NOp   1
 Largest Abelian subgroup         C1      NOp   1
 Largest concise Abelian subgroup C1      NOp   1
                         Standard orientation:                         
 ---------------------------------------------------------------------
 Center     Atomic      Atomic             Coordinates (Angstroms)
 Number     Number       Type             X           Y           Z
 ---------------------------------------------------------------------
      1          6           0       -5.482004    0.238076    0.000005
      2          6           0       -4.323858   -0.425883    0.000001
      3          6           0       -3.032067    0.290783   -0.000000
      4          6           0       -1.872463   -0.379751   -0.000003
      5          6           0       -0.579736    0.336279   -0.000004
      6          6           0        0.579690   -0.334683   -0.000004
      7          6           0        1.872660    0.380889   -0.000003
      8          6           0        3.031837   -0.290407   -0.000000
      9          6           0        4.324236    0.425119    0.000001
     10          6           0        5.481732   -0.239999    0.000005
     11          1           0       -6.419893   -0.307883    0.000006
     12          1           0       -5.507934    1.323817    0.000007
     13          1           0       -4.340806   -1.512498   -0.000000
     14          1           0       -3.027890    1.378479    0.000001
     15          1           0       -1.877727   -1.467437   -0.000004
     16          1           0       -0.574440    1.423952   -0.000003
     17          1           0        0.574234   -1.422354   -0.000003
     18          1           0        1.878485    1.468572   -0.000004
     19          1           0        3.026859   -1.378102    0.000001
     20          1           0        4.342199    1.511713   -0.000000
     21          1           0        5.506557   -1.325776    0.000007
     22          1           0        6.420190    0.304970    0.000006
 ---------------------------------------------------------------------
 Rotational constants (GHZ):          14.6467722           0.2988179           0.2928434
 Standard basis: 6-31G(d,p) (6D, 7F)
 There are   210 symmetry adapted cartesian basis functions of A   symmetry.
 There are   210 symmetry adapted basis functions of A   symmetry.
   210 basis functions,   364 primitive gaussians,   210 cartesian basis functions
    36 alpha electrons       36 beta electrons
       nuclear repulsion energy       412.3259563101 Hartrees.
 NAtoms=   22 NActive=   22 NUniq=   22 SFac= 1.00D+00 NAtFMM=   60 NAOKFM=F Big=F
 Integral buffers will be    131072 words long.
 Raffenetti 2 integral format.
 Two-electron integral symmetry is turned on.
 One-electron integrals computed using PRISM.
 NBasis=   210 RedAO= T EigKep=  1.53D-03  NBF=   210
 NBsUse=   210 1.00D-06 EigRej= -1.00D+00 NBFU=   210
 ExpMin= 1.61D-01 ExpMax= 3.05D+03 ExpMxC= 4.57D+02 IAcc=3 IRadAn=         5 AccDes= 0.00D+00
 Harris functional with IExCor=  402 and IRadAn=       5 diagonalized for initial guess.
 HarFok:  IExCor=  402 AccDes= 0.00D+00 IRadAn=         5 IDoV= 1 UseB2=F ITyADJ=14
 ICtDFT=  3500011 ScaDFX=  1.000000  1.000000  1.000000  1.000000
 FoFCou: FMM=F IPFlag=           0 FMFlag=      100000 FMFlg1=           0
         NFxFlg=           0 DoJE=T BraDBF=F KetDBF=T FulRan=T
         wScrn=  0.000000 ICntrl=       500 IOpCl=  0 I1Cent=   200000004 NGrid=           0
         NMat0=    1 NMatS0=      1 NMatT0=    0 NMatD0=    1 NMtDS0=    0 NMtDT0=    0
 Petite list used in FoFCou.
 Requested convergence on RMS density matrix=1.00D-08 within 128 cycles.
 Requested convergence on MAX density matrix=1.00D-06.
 Requested convergence on             energy=1.00D-06.
 No special actions if energy rises.
 Integral accuracy reduced to 1.0D-05 until final iterations.
 Initial convergence to 1.0D-05 achieved.  Increase integral accuracy.
 SCF Done:  E(RB3LYP) =  -388.223575227     A.U. after   13 cycles
            NFock= 13  Conv=0.47D-08     -V/T= 2.0100

 **********************************************************************

            Population analysis using the SCF Density.

 **********************************************************************

 Orbital symmetries:
       Occupied  (A) (A) (A) (A) (A) (A) (A) (A) (A) (A) (A) (A)
                 (A) (A) (A) (A) (A) (A) (A) (A) (A) (A) (A) (A)
                 (A) (A) (A) (A) (A) (A) (A) (A) (A) (A) (A) (A)
       Virtual   (A) (A) (A) (A) (A) (A) (A) (A) (A) (A) (A) (A)
                 (A) (A) (A) (A) (A) (A) (A) (A) (A) (A) (A) (A)
                 (A) (A) (A) (A) (A) (A) (A) (A) (A) (A) (A) (A)
                 (A) (A) (A) (A) (A) (A) (A) (A) (A) (A) (A) (A)
                 (A) (A) (A) (A) (A) (A) (A) (A) (A) (A) (A) (A)
                 (A) (A) (A) (A) (A) (A) (A) (A) (A) (A) (A) (A)
                 (A) (A) (A) (A) (A) (A) (A) (A) (A) (A) (A) (A)
                 (A) (A) (A) (A) (A) (A) (A) (A) (A) (A) (A) (A)
                 (A) (A) (A) (A) (A) (A) (A) (A) (A) (A) (A) (A)
                 (A) (A) (A) (A) (A) (A) (A) (A) (A) (A) (A) (A)
                 (A) (A) (A) (A) (A) (A) (A) (A) (A) (A) (A) (A)
                 (A) (A) (A) (A) (A) (A) (A) (A) (A) (A) (A) (A)
                 (A) (A) (A) (A) (A) (A) (A) (A) (A) (A) (A) (A)
                 (A) (A) (A) (A) (A) (A) (A) (A) (A) (A) (A) (A)
                 (A) (A) (A) (A) (A) (A)
 The electronic state is 1-A.
 Alpha  occ. eigenvalues --  -10.19176 -10.19175 -10.19153 -10.19134 -10.19122
 Alpha  occ. eigenvalues --  -10.19057 -10.18990 -10.18989 -10.17962 -10.17960
 Alpha  occ. eigenvalues --   -0.82456  -0.80702  -0.77955  -0.74388  -0.70605
 Alpha  occ. eigenvalues --   -0.62110  -0.57547  -0.56645  -0.55267  -0.54418
 Alpha  occ. eigenvalues --   -0.47868  -0.47692  -0.45054  -0.43624  -0.40726
 Alpha  occ. eigenvalues --   -0.39564  -0.38125  -0.37579  -0.36674  -0.35313
 Alpha  occ. eigenvalues --   -0.34679  -0.33574  -0.32468  -0.28951  -0.24310
 Alpha  occ. eigenvalues --   -0.19227
 Alpha virt. eigenvalues --   -0.05450   0.00204   0.05498   0.08822   0.08911
 Alpha virt. eigenvalues --    0.09868   0.11163   0.12551   0.12654   0.14095
 Alpha virt. eigenvalues --    0.14788   0.14967   0.15951   0.18092   0.19396
 Alpha virt. eigenvalues --    0.20288   0.20420   0.28149   0.31157   0.32044
 Alpha virt. eigenvalues --    0.34838   0.35903   0.37141   0.38249   0.40904
 Alpha virt. eigenvalues --    0.41912   0.47721   0.49293   0.51970   0.53312
 Alpha virt. eigenvalues --    0.55628   0.56552   0.57162   0.58002   0.58977
 Alpha virt. eigenvalues --    0.59315   0.60149   0.61147   0.62217   0.62874
 Alpha virt. eigenvalues --    0.64476   0.65484   0.66231   0.68180   0.68986
 Alpha virt. eigenvalues --    0.70058   0.73511   0.73717   0.79175   0.81308
 Alpha virt. eigenvalues --    0.83260   0.83812   0.84878   0.85498   0.85986
 Alpha virt. eigenvalues --    0.87080   0.87800   0.88671   0.91303   0.91893
 Alpha virt. eigenvalues --    0.93250   0.94129   0.97159   1.04063   1.04292
 Alpha virt. eigenvalues --    1.05317   1.06915   1.08552   1.10663   1.12541
 Alpha virt. eigenvalues --    1.20503   1.21130   1.28238   1.30094   1.30324
 Alpha virt. eigenvalues --    1.31663   1.31949   1.32419   1.33780   1.34316
 Alpha virt. eigenvalues --    1.36571   1.38607   1.41093   1.44074   1.47404
 Alpha virt. eigenvalues --    1.47435   1.50402   1.51335   1.51884   1.76262
 Alpha virt. eigenvalues --    1.76463   1.77116   1.77442   1.84624   1.86130
 Alpha virt. eigenvalues --    1.86307   1.91583   1.92648   1.93305   1.94552
 Alpha virt. eigenvalues --    1.96338   1.98257   1.98399   1.99997   2.03733
 Alpha virt. eigenvalues --    2.04959   2.07422   2.11562   2.12093   2.14860
 Alpha virt. eigenvalues --    2.17236   2.19754   2.19780   2.22438   2.23377
 Alpha virt. eigenvalues --    2.24415   2.29389   2.34601   2.34828   2.41352
 Alpha virt. eigenvalues --    2.41918   2.47110   2.47279   2.47716   2.48472
 Alpha virt. eigenvalues --    2.51054   2.51318   2.52693   2.54025   2.54702
 Alpha virt. eigenvalues --    2.55149   2.59857   2.61412   2.64019   2.66266
 Alpha virt. eigenvalues --    2.66376   2.67069   2.67093   2.70157   2.70554
 Alpha virt. eigenvalues --    2.71381   2.74159   2.79110   2.83314   2.84878
 Alpha virt. eigenvalues --    2.89410   2.90883   2.91929   2.96061   2.96907
 Alpha virt. eigenvalues --    2.99435   2.99931   3.27900   3.28083   3.35803
 Alpha virt. eigenvalues --    3.37778   3.40699   3.44560   3.50830   3.56514
 Alpha virt. eigenvalues --    3.61242   3.65271   3.69937   3.71680   4.13662
 Alpha virt. eigenvalues --    4.14012   4.15005   4.17564   4.23724   4.29354
 Alpha virt. eigenvalues --    4.40269   4.52777   4.64734   4.73257
          Condensed to atoms (all electrons):
               1          2          3          4          5          6
     1  C    4.965101   0.618927  -0.031409   0.002696  -0.000276   0.000005
     2  C    0.618927   4.740040   0.420674  -0.019941   0.004045  -0.000268
     3  C   -0.031409   0.420674   4.860957   0.578269  -0.018235   0.002489
     4  C    0.002696  -0.019941   0.578269   4.869297   0.391471  -0.016329
     5  C   -0.000276   0.004045  -0.018235   0.391471   4.887221   0.563501
     6  C    0.000005  -0.000268   0.002489  -0.016329   0.563501   4.887130
     7  C   -0.000000   0.000002  -0.000255   0.003621  -0.016369   0.391474
     8  C   -0.000000  -0.000000   0.000004  -0.000255   0.002490  -0.018200
     9  C    0.000000   0.000000  -0.000000   0.000002  -0.000268   0.004043
    10  C    0.000000   0.000000  -0.000000  -0.000000   0.000005  -0.000276
    11  H    0.369529  -0.020412   0.004034  -0.000224   0.000003  -0.000000
    12  H    0.382768  -0.035913  -0.012712   0.000560  -0.000000  -0.000000
    13  H   -0.050966   0.381991  -0.047479  -0.005756   0.000268  -0.000005
    14  H   -0.005159  -0.046686   0.379509  -0.051050  -0.009548   0.000547
    15  H    0.000486  -0.009057  -0.053569   0.381418  -0.048041  -0.005253
    16  H   -0.000003   0.000238  -0.005230  -0.048023   0.381181  -0.052860
    17  H    0.000000  -0.000004   0.000532  -0.009212  -0.052877   0.381193
    18  H    0.000000  -0.000000  -0.000004   0.000250  -0.005249  -0.048025
    19  H    0.000000   0.000000  -0.000000  -0.000004   0.000548  -0.009554
    20  H   -0.000000  -0.000000   0.000000  -0.000000  -0.000005   0.000268
    21  H    0.000000  -0.000000   0.000000   0.000000  -0.000000  -0.000000
    22  H   -0.000000   0.000000  -0.000000   0.000000  -0.000000   0.000003
               7          8          9         10         11         12
     1  C   -0.000000  -0.000000   0.000000   0.000000   0.369529   0.382768
     2  C    0.000002  -0.000000   0.000000   0.000000  -0.020412  -0.035913
     3  C   -0.000255   0.000004  -0.000000  -0.000000   0.004034  -0.012712
     4  C    0.003621  -0.000255   0.000002  -0.000000  -0.000224   0.000560
     5  C   -0.016369   0.002490  -0.000268   0.000005   0.000003  -0.000000
     6  C    0.391474  -0.018200   0.004043  -0.000276  -0.000000  -0.000000
     7  C    4.869362   0.578266  -0.019969   0.002700   0.000000   0.000000
     8  C    0.578266   4.860900   0.420674  -0.031396  -0.000000   0.000000
     9  C   -0.019969   0.420674   4.740075   0.618922   0.000000  -0.000000
    10  C    0.002700  -0.031396   0.618922   4.965075  -0.000000   0.000000
    11  H    0.000000  -0.000000   0.000000  -0.000000   0.601900  -0.042392
    12  H    0.000000   0.000000  -0.000000   0.000000  -0.042392   0.601382
    13  H   -0.000000   0.000000  -0.000000  -0.000000  -0.008109   0.005978
    14  H   -0.000004  -0.000000   0.000000   0.000000   0.000025   0.004582
    15  H    0.000251  -0.000004  -0.000000   0.000000  -0.000008   0.000014
    16  H   -0.009204   0.000531  -0.000004   0.000000   0.000000   0.000001
    17  H   -0.048040  -0.005234   0.000238  -0.000003  -0.000000  -0.000000
    18  H    0.381409  -0.053557  -0.009049   0.000485   0.000000  -0.000000
    19  H   -0.051060   0.379517  -0.046695  -0.005164  -0.000000   0.000000
    20  H   -0.005755  -0.047473   0.381989  -0.050963   0.000000   0.000000
    21  H    0.000560  -0.012714  -0.035916   0.382768  -0.000000  -0.000000
    22  H   -0.000224   0.004033  -0.020415   0.369531   0.000000  -0.000000
              13         14         15         16         17         18
     1  C   -0.050966  -0.005159   0.000486  -0.000003   0.000000   0.000000
     2  C    0.381991  -0.046686  -0.009057   0.000238  -0.000004  -0.000000
     3  C   -0.047479   0.379509  -0.053569  -0.005230   0.000532  -0.000004
     4  C   -0.005756  -0.051050   0.381418  -0.048023  -0.009212   0.000250
     5  C    0.000268  -0.009548  -0.048041   0.381181  -0.052877  -0.005249
     6  C   -0.000005   0.000547  -0.005253  -0.052860   0.381193  -0.048025
     7  C   -0.000000  -0.000004   0.000251  -0.009204  -0.048040   0.381409
     8  C    0.000000  -0.000000  -0.000004   0.000531  -0.005234  -0.053557
     9  C   -0.000000   0.000000  -0.000000  -0.000004   0.000238  -0.009049
    10  C   -0.000000   0.000000   0.000000   0.000000  -0.000003   0.000485
    11  H   -0.008109   0.000025  -0.000008   0.000000  -0.000000   0.000000
    12  H    0.005978   0.004582   0.000014   0.000001  -0.000000  -0.000000
    13  H    0.631571   0.004340   0.004190   0.000005   0.000001  -0.000000
    14  H    0.004340   0.631451   0.006058   0.004056   0.000014   0.000001
    15  H    0.004190   0.006058   0.633839   0.004272   0.004068   0.000005
    16  H    0.000005   0.004056   0.004272   0.633916   0.006057   0.004063
    17  H    0.000001   0.000014   0.004068   0.006057   0.633948   0.004273
    18  H   -0.000000   0.000001   0.000005   0.004063   0.004273   0.633805
    19  H   -0.000000  -0.000000   0.000001   0.000014   0.004060   0.006057
    20  H    0.000000  -0.000000  -0.000000   0.000001   0.000005   0.004187
    21  H    0.000000   0.000000  -0.000000  -0.000000   0.000001   0.000014
    22  H    0.000000  -0.000000   0.000000  -0.000000   0.000000  -0.000008
              19         20         21         22
     1  C    0.000000  -0.000000   0.000000  -0.000000
     2  C    0.000000  -0.000000  -0.000000   0.000000
     3  C   -0.000000   0.000000   0.000000  -0.000000
     4  C   -0.000004  -0.000000   0.000000   0.000000
     5  C    0.000548  -0.000005  -0.000000  -0.000000
     6  C   -0.009554   0.000268  -0.000000   0.000003
     7  C   -0.051060  -0.005755   0.000560  -0.000224
     8  C    0.379517  -0.047473  -0.012714   0.004033
     9  C   -0.046695   0.381989  -0.035916  -0.020415
    10  C   -0.005164  -0.050963   0.382768   0.369531
    11  H   -0.000000   0.000000  -0.000000   0.000000
    12  H    0.000000   0.000000  -0.000000  -0.000000
    13  H   -0.000000   0.000000   0.000000   0.000000
    14  H   -0.000000  -0.000000   0.000000  -0.000000
    15  H    0.000001  -0.000000  -0.000000   0.000000
    16  H    0.000014   0.000001  -0.000000  -0.000000
    17  H    0.004060   0.000005   0.000001   0.000000
    18  H    0.006057   0.004187   0.000014  -0.000008
    19  H    0.631465   0.004340   0.004585   0.000025
    20  H    0.004340   0.631553   0.005977  -0.008105
    21  H    0.004585   0.005977   0.601376  -0.042391
    22  H    0.000025  -0.008105  -0.042391   0.601888
 Mulliken charges:
               1
     1  C   -0.251698
     2  C   -0.033637
     3  C   -0.077577
     4  C   -0.076792
     5  C   -0.079864
     6  C   -0.079884
     7  C   -0.076765
     8  C   -0.077583
     9  C   -0.033628
    10  C   -0.251684
    11  H    0.095654
    12  H    0.095733
    13  H    0.083969
    14  H    0.081866
    15  H    0.081330
    16  H    0.080988
    17  H    0.080978
    18  H    0.081343
    19  H    0.081865
    20  H    0.083980
    21  H    0.095741
    22  H    0.095663
 Sum of Mulliken charges =  -0.00000
 Mulliken charges with hydrogens summed into heavy atoms:
               1
     1  C   -0.060311
     2  C    0.050333
     3  C    0.004289
     4  C    0.004538
     5  C    0.001124
     6  C    0.001095
     7  C    0.004578
     8  C    0.004283
     9  C    0.050352
    10  C   -0.060280
 Electronic spatial extent (au):  <R**2>=           3616.0617
 Charge=             -0.0000 electrons
 Dipole moment (field-independent basis, Debye):
    X=              0.0013    Y=              0.0002    Z=              0.0000  Tot=              0.0013
 Quadrupole moment (field-independent basis, Debye-Ang):
   XX=            -57.6588   YY=            -53.4340   ZZ=            -66.5002
   XY=              0.6546   XZ=             -0.0000   YZ=             -0.0000
 Traceless Quadrupole moment (field-independent basis, Debye-Ang):
   XX=              1.5389   YY=              5.7637   ZZ=             -7.3026
   XY=              0.6546   XZ=             -0.0000   YZ=             -0.0000
 Octapole moment (field-independent basis, Debye-Ang**2):
  XXX=              0.0407  YYY=              0.0027  ZZZ=             -0.0000  XYY=             -0.0016
  XXY=              0.0063  XXZ=              0.0001  XZZ=              0.0010  YZZ=              0.0004
  YYZ=             -0.0000  XYZ=             -0.0001
 Hexadecapole moment (field-independent basis, Debye-Ang**3):
 XXXX=          -4529.8675 YYYY=           -168.3384 ZZZZ=            -68.9195 XXXY=             37.8757
 XXXZ=             -0.0000 YYYX=             -0.5339 YYYZ=             -0.0000 ZZZX=             -0.0000
 ZZZY=             -0.0000 XXYY=           -750.8838 XXZZ=           -902.1426 YYZZ=            -44.5038
 XXYZ=             -0.0000 YYXZ=             -0.0000 ZZXY=              0.2253
 N-N= 4.123259563101D+02 E-N=-1.722413882221D+03  KE= 3.843707940000D+02
 Calling FoFJK, ICntrl=      2127 FMM=F ISym2X=0 I1Cent= 0 IOpClX= 0 NMat=1 NMatS=1 NMatT=0.
 ***** Axes restored to original set *****
 -------------------------------------------------------------------
 Center     Atomic                   Forces (Hartrees/Bohr)
 Number     Number              X              Y              Z
 -------------------------------------------------------------------
      1        6          -0.008726053    0.002982592    0.000001437
      2        6           0.013213332   -0.020843572   -0.000006010
      3        6          -0.023551349    0.020934854    0.000006905
      4        6           0.026959034   -0.022331993   -0.000007532
      5        6          -0.028268802    0.021640589    0.000007491
      6        6           0.028276776   -0.021634560   -0.000007497
      7        6          -0.026961636    0.022320617    0.000007545
      8        6           0.023564102   -0.020917305   -0.000006913
      9        6          -0.013225366    0.020831827    0.000005979
     10        6           0.008721801   -0.002974005   -0.000001450
     11        1          -0.002260920   -0.003823632   -0.000000707
     12        1          -0.002387330    0.000159091    0.000000242
     13        1           0.005319234    0.000879714   -0.000000236
     14        1          -0.003439960    0.000116291    0.000000326
     15        1           0.003210278   -0.000008172   -0.000000265
     16        1          -0.003215336    0.000042663    0.000000291
     17        1           0.003214073   -0.000038813   -0.000000277
     18        1          -0.003208157    0.000008890    0.000000286
     19        1           0.003436657   -0.000113996   -0.000000323
     20        1          -0.005315094   -0.000887413    0.000000270
     21        1           0.002386282   -0.000163463   -0.000000244
     22        1           0.002258433    0.003819794    0.000000683
 -------------------------------------------------------------------
 Cartesian Forces:  Max     0.028276776 RMS     0.011370646

 GradGradGradGradGradGradGradGradGradGradGradGradGradGradGradGradGradGrad
 Berny optimization.
 FormGI is forming the generalized inverse of G from B-inverse, IUseBI=4.
 Internal  Forces:  Max     0.019795441 RMS     0.007154981
 Search for a local minimum.
 Step number   1 out of a maximum of   97
 All quantities printed in internal units (Hartrees-Bohrs-Radians)
 Mixed Optimization -- RFO/linear search
 Second derivative matrix not updated -- first step.
 ITU=  0
     Eigenvalues ---    0.01060   0.01060   0.01067   0.01067   0.01979
     Eigenvalues ---    0.01979   0.01979   0.01979   0.01983   0.01983
     Eigenvalues ---    0.01999   0.01999   0.02888   0.02889   0.02889
     Eigenvalues ---    0.02949   0.02949   0.02949   0.02949   0.16000
     Eigenvalues ---    0.16000   0.16000   0.16000   0.16000   0.16000
     Eigenvalues ---    0.16000   0.16000   0.16000   0.16000   0.16000
     Eigenvalues ---    0.16000   0.22000   0.22000   0.22000   0.22000
     Eigenvalues ---    0.22000   0.22000   0.22000   0.22000   0.34825
     Eigenvalues ---    0.34826   0.34884   0.34886   0.35079   0.35079
     Eigenvalues ---    0.35080   0.35080   0.35081   0.35082   0.35191
     Eigenvalues ---    0.35192   0.35272   0.35273   0.35371   0.35371
     Eigenvalues ---    0.57301   0.57311   0.57314   0.58344   0.58347
 RFO step:  Lambda=-1.45361700D-02 EMin= 1.05983850D-02
 Linear search not attempted -- first point.
 Iteration  1 RMS(Cart)=  0.05545024 RMS(Int)=  0.00046989
 Iteration  2 RMS(Cart)=  0.00121625 RMS(Int)=  0.00000007
 Iteration  3 RMS(Cart)=  0.00000013 RMS(Int)=  0.00000000
 Variable       Old X    -DE/DX   Delta X   Delta X   Delta X     New X
                                 (Linear)    (Quad)   (Total)
    R1        2.52273   0.01175   0.00000   0.01964   0.01964   2.54237
    R2        2.05077   0.00017   0.00000   0.00046   0.00046   2.05123
    R3        2.05234  -0.00018   0.00000  -0.00048  -0.00048   2.05186
    R4        2.79164  -0.01403   0.00000  -0.03862  -0.03862   2.75302
    R5        2.05366   0.00063   0.00000   0.00172   0.00172   2.05537
    R6        2.53131   0.01834   0.00000   0.03120   0.03120   2.56251
    R7        2.05546  -0.00024   0.00000  -0.00065  -0.00065   2.05481
    R8        2.79260  -0.01744   0.00000  -0.04807  -0.04807   2.74454
    R9        2.05545  -0.00012   0.00000  -0.00034  -0.00034   2.05511
   R10        2.53143   0.01980   0.00000   0.03369   0.03369   2.56512
   R11        2.05543  -0.00016   0.00000  -0.00043  -0.00043   2.05499
   R12        2.79259  -0.01743   0.00000  -0.04805  -0.04805   2.74453
   R13        2.05543  -0.00016   0.00000  -0.00043  -0.00043   2.05500
   R14        2.53134   0.01832   0.00000   0.03118   0.03118   2.56252
   R15        2.05545  -0.00013   0.00000  -0.00035  -0.00035   2.05511
   R16        2.79160  -0.01402   0.00000  -0.03859  -0.03859   2.75301
   R17        2.05547  -0.00024   0.00000  -0.00065  -0.00065   2.05482
   R18        2.52275   0.01173   0.00000   0.01962   0.01962   2.54237
   R19        2.05364   0.00063   0.00000   0.00173   0.00173   2.05537
   R20        2.05236  -0.00018   0.00000  -0.00050  -0.00050   2.05186
   R21        2.05076   0.00017   0.00000   0.00047   0.00047   2.05123
    A1        2.09388   0.00444   0.00000   0.02542   0.02542   2.11929
    A2        2.11523   0.00023   0.00000   0.00132   0.00132   2.11654
    A3        2.07408  -0.00467   0.00000  -0.02674  -0.02674   2.04735
    A4        2.11453   0.01168   0.00000   0.04979   0.04979   2.16432
    A5        2.07575  -0.00034   0.00000   0.00661   0.00661   2.08236
    A6        2.09290  -0.01134   0.00000  -0.05639  -0.05639   2.03651
    A7        2.11081   0.01208   0.00000   0.05151   0.05151   2.16232
    A8        2.08115  -0.00957   0.00000  -0.04597  -0.04597   2.03517
    A9        2.09123  -0.00251   0.00000  -0.00553  -0.00553   2.08569
   A10        2.11150   0.01248   0.00000   0.05323   0.05323   2.16472
   A11        2.09023  -0.00294   0.00000  -0.00772  -0.00772   2.08250
   A12        2.08146  -0.00954   0.00000  -0.04550  -0.04550   2.03596
   A13        2.11116   0.01235   0.00000   0.05267   0.05267   2.16382
   A14        2.08149  -0.00948   0.00000  -0.04524  -0.04524   2.03625
   A15        2.09054  -0.00288   0.00000  -0.00742  -0.00742   2.08312
   A16        2.11151   0.01230   0.00000   0.05245   0.05245   2.16395
   A17        2.09039  -0.00285   0.00000  -0.00732  -0.00732   2.08307
   A18        2.08129  -0.00945   0.00000  -0.04513  -0.04513   2.03616
   A19        2.11120   0.01253   0.00000   0.05341   0.05341   2.16460
   A20        2.08163  -0.00956   0.00000  -0.04558  -0.04558   2.03605
   A21        2.09036  -0.00297   0.00000  -0.00783  -0.00783   2.08253
   A22        2.11104   0.01205   0.00000   0.05137   0.05137   2.16240
   A23        2.09114  -0.00250   0.00000  -0.00548  -0.00548   2.08566
   A24        2.08101  -0.00955   0.00000  -0.04588  -0.04588   2.03513
   A25        2.11441   0.01169   0.00000   0.04985   0.04985   2.16426
   A26        2.09296  -0.01134   0.00000  -0.05641  -0.05641   2.03655
   A27        2.07581  -0.00035   0.00000   0.00656   0.00656   2.08237
   A28        2.11520   0.00023   0.00000   0.00133   0.00133   2.11653
   A29        2.09393   0.00443   0.00000   0.02539   0.02539   2.11932
   A30        2.07405  -0.00466   0.00000  -0.02671  -0.02671   2.04734
    D1       -3.14159  -0.00000   0.00000  -0.00000  -0.00000  -3.14159
    D2       -0.00000   0.00000   0.00000   0.00000   0.00000   0.00000
    D3        0.00000   0.00000   0.00000  -0.00000  -0.00000   0.00000
    D4        3.14159   0.00000   0.00000   0.00000   0.00000   3.14159
    D5        3.14159   0.00000   0.00000   0.00000   0.00000   3.14159
    D6       -0.00000   0.00000   0.00000   0.00000   0.00000  -0.00000
    D7       -0.00000   0.00000   0.00000   0.00000   0.00000  -0.00000
    D8        3.14159  -0.00000   0.00000  -0.00000  -0.00000   3.14159
    D9       -3.14159  -0.00000   0.00000  -0.00000  -0.00000  -3.14159
   D10       -0.00000   0.00000   0.00000   0.00000   0.00000   0.00000
   D11        0.00000  -0.00000   0.00000  -0.00000  -0.00000   0.00000
   D12        3.14159   0.00000   0.00000   0.00000   0.00000   3.14159
   D13        3.14159   0.00000   0.00000   0.00000   0.00000   3.14159
   D14       -0.00000   0.00000   0.00000   0.00000   0.00000  -0.00000
   D15       -0.00000   0.00000   0.00000   0.00000   0.00000  -0.00000
   D16        3.14159  -0.00000   0.00000  -0.00000  -0.00000   3.14159
   D17       -3.14159  -0.00000   0.00000  -0.00000  -0.00000  -3.14159
   D18        0.00000   0.00000   0.00000   0.00000   0.00000   0.00000
   D19        0.00000  -0.00000   0.00000  -0.00000  -0.00000   0.00000
   D20        3.14159   0.00000   0.00000   0.00000   0.00000   3.14159
   D21        3.14159   0.00000   0.00000   0.00000   0.00000   3.14159
   D22       -0.00000   0.00000   0.00000   0.00000   0.00000  -0.00000
   D23       -0.00000   0.00000   0.00000   0.00000   0.00000  -0.00000
   D24        3.14159  -0.00000   0.00000  -0.00000  -0.00000   3.14159
   D25       -3.14159  -0.00000   0.00000  -0.00000  -0.00000  -3.14159
   D26        0.00000  -0.00000   0.00000  -0.00000  -0.00000   0.00000
   D27        0.00000   0.00000   0.00000   0.00000   0.00000   0.00000
   D28        3.14159   0.00000   0.00000   0.00000   0.00000   3.14159
   D29        3.14159   0.00000   0.00000   0.00000   0.00000   3.14159
   D30       -0.00000   0.00000   0.00000   0.00000   0.00000  -0.00000
   D31       -0.00000   0.00000   0.00000   0.00000   0.00000  -0.00000
   D32        3.14159  -0.00000   0.00000  -0.00000  -0.00000   3.14159
   D33        0.00000   0.00000   0.00000  -0.00000  -0.00000   0.00000
   D34       -3.14159  -0.00000   0.00000  -0.00000  -0.00000  -3.14159
   D35        3.14159   0.00000   0.00000   0.00000   0.00000   3.14159
   D36       -0.00000   0.00000   0.00000   0.00000   0.00000  -0.00000
         Item               Value     Threshold  Converged?
 Maximum Force            0.019795     0.000450     NO 
 RMS     Force            0.007155     0.000300     NO 
 Maximum Displacement     0.198063     0.001800     NO 
 RMS     Displacement     0.054500     0.001200     NO 
 Predicted change in Energy=-7.666642D-03
 GradGradGradGradGradGradGradGradGradGradGradGradGradGradGradGradGradGrad

                          Input orientation:                          
 ---------------------------------------------------------------------
 Center     Atomic      Atomic             Coordinates (Angstroms)
 Number     Number       Type             X           Y           Z
 ---------------------------------------------------------------------
      1          6           0       -5.003097    1.238344    0.000571
      2          6           0       -3.836900    1.909158    0.000629
      3          6           0       -2.528460    1.268568    0.000367
      4          6           0       -1.354376    1.947043    0.000426
      5          6           0       -0.048437    1.311564    0.000165
      6          6           0        1.126229    1.991788    0.000223
      7          6           0        2.432249    1.356483   -0.000038
      8          6           0        3.606165    2.035253    0.000018
      9          6           0        4.914812    1.395101   -0.000245
     10          6           0        6.080748    2.066371   -0.000191
     11          1           0       -5.955525    1.759031    0.000773
     12          1           0       -5.028884    0.152854    0.000319
     13          1           0       -3.848245    2.996756    0.000884
     14          1           0       -2.518567    0.181253    0.000112
     15          1           0       -1.367739    3.034480    0.000681
     16          1           0       -0.034763    0.224194   -0.000090
     17          1           0        1.112506    3.079161    0.000477
     18          1           0        2.445849    0.269052   -0.000292
     19          1           0        3.595962    3.122568    0.000271
     20          1           0        4.926570    0.307510   -0.000499
     21          1           0        6.106098    3.151871    0.000059
     22          1           0        7.033393    1.546079   -0.000395
 ---------------------------------------------------------------------
                    Distance matrix (angstroms):
                    1          2          3          4          5
     1  C    0.000000
     2  C    1.345365   0.000000
     3  C    2.474821   1.456836   0.000000
     4  C    3.716910   2.482813   1.356025   0.000000
     5  C    4.955201   3.835306   2.480396   1.452347   0.000000
     6  C    6.175460   4.963817   3.725560   2.481008   1.357403
     7  C    7.436284   6.293463   4.961488   3.832400   2.481092
     8  C    8.646065   7.444133   6.182348   4.961325   3.725565
     9  C    9.919148   8.766797   7.444348   6.293438   4.963952
    10  C   11.114731   9.918895   8.646095   7.436082   6.175487
    11  H    1.085466   2.123938   3.461984   4.604989   5.924012
    12  H    1.085796   2.122600   2.738054   4.089147   5.113459
    13  H    2.103733   1.087656   2.174504   2.705786   4.156731
    14  H    2.700061   2.173398   1.087360   2.115031   2.716459
    15  H    4.054865   2.713504   2.113225   1.087519   2.170022
    16  H    5.070783   4.158768   2.703561   2.170158   1.087456
    17  H    6.386643   5.085817   4.066311   2.714259   2.114755
    18  H    7.511746   6.493296   5.073735   4.154199   2.703386
    19  H    8.803074   7.531255   6.398895   5.087996   4.069567
    20  H    9.973201   8.908630   7.516722   6.491406   5.075315
    21  H   11.272790  10.020356   8.837557   7.557134   6.423786
    22  H   12.040423  10.876355   9.565879   8.397347   7.085711
                    6          7          8          9         10
     6  C    0.000000
     7  C    1.452343   0.000000
     8  C    2.480317   1.356027   0.000000
     9  C    3.835284   2.482864   1.456830   0.000000
    10  C    4.955081   3.716920   2.474780   1.345366   0.000000
    11  H    7.085578   8.397428   9.565679  10.876428  12.040197
    12  H    6.423947   7.557594   8.837845  10.020992  11.273220
    13  H    5.074973   6.491155   7.516163   8.908225   9.972489
    14  H    4.069714   5.088393   6.399192   7.531836   8.803516
    15  H    2.703161   4.153984   5.073280   6.492920   7.511139
    16  H    2.114779   2.714447   4.066483   5.086189   6.386947
    17  H    1.087460   2.170101   2.703345   4.158556   5.070421
    18  H    2.170073   1.087516   2.113244   2.713626   4.054978
    19  H    2.716292   2.115014   1.087362   2.173363   2.699948
    20  H    4.156848   2.705916   2.174527   1.087655   2.103740
    21  H    5.113207   4.089082   2.737974   2.122593   1.085796
    22  H    5.923955   4.605049   3.461963   2.123953   1.085465
                   11         12         13         14         15
    11  H    0.000000
    12  H    1.854311   0.000000
    13  H    2.443889   3.079234   0.000000
    14  H    3.781807   2.510478   3.113696   0.000000
    15  H    4.761780   4.659158   2.480793   3.076575   0.000000
    16  H    6.116466   4.994631   4.714843   2.484176   3.110391
    17  H    7.190258   6.802937   4.961436   4.645704   2.480648
    18  H    8.532475   7.475637   6.859737   4.965193   4.710738
    19  H    9.648323   9.121796   7.445270   6.785190   4.964482
    20  H   10.978475   9.956656   9.177659   7.446208   6.859643
    21  H   12.141777  11.531779   9.955551   9.121920   7.474759
    22  H   12.990664  12.142471  10.977910   9.648973   8.531961
                   16         17         18         19         20
    16  H    0.000000
    17  H    3.076859   0.000000
    18  H    2.481018   3.110388   0.000000
    19  H    4.645722   2.483834   3.076575   0.000000
    20  H    4.962032   4.714778   2.481019   3.113691   0.000000
    21  H    6.803048   4.994121   4.659192   2.510307   3.079233
    22  H    7.190702   6.116146   4.761969   3.781700   2.443922
                   21         22
    21  H    0.000000
    22  H    1.854305   0.000000
 Stoichiometry    C10H12
 Framework group  C1[X(C10H12)]
 Deg. of freedom    60
 Full point group                 C1      NOp   1
 Largest Abelian subgroup         C1      NOp   1
 Largest concise Abelian subgroup C1      NOp   1
                         Standard orientation:                         
 ---------------------------------------------------------------------
 Center     Atomic      Atomic             Coordinates (Angstroms)
 Number     Number       Type             X           Y           Z
 ---------------------------------------------------------------------
      1          6           0       -5.552992    0.221408    0.000003
      2          6           0       -4.364257   -0.408605    0.000001
      3          6           0       -3.078794    0.276928   -0.000000
      4          6           0       -1.881911   -0.360468   -0.000002
      5          6           0       -0.598769    0.319869   -0.000002
      6          6           0        0.598755   -0.319254   -0.000002
      7          6           0        1.881983    0.360913   -0.000002
      8          6           0        3.078708   -0.276784   -0.000000
      9          6           0        4.364395    0.408318    0.000001
     10          6           0        5.552885   -0.222159    0.000003
     11          1           0       -6.486811   -0.331961    0.000003
     12          1           0       -5.616367    1.305352    0.000004
     13          1           0       -4.337919   -1.495942   -0.000001
     14          1           0       -3.106573    1.363933    0.000001
     15          1           0       -1.857595   -1.447715   -0.000002
     16          1           0       -0.622772    1.407060   -0.000002
     17          1           0        0.622710   -1.406449   -0.000002
     18          1           0        1.857905    1.448163   -0.000002
     19          1           0        3.106178   -1.363799    0.000001
     20          1           0        4.338469    1.495664   -0.000001
     21          1           0        5.615823   -1.306129    0.000004
     22          1           0        6.486934    0.330823    0.000003
 ---------------------------------------------------------------------
 Rotational constants (GHZ):          15.4424732           0.2918244           0.2864119
 Standard basis: 6-31G(d,p) (6D, 7F)
 There are   210 symmetry adapted cartesian basis functions of A   symmetry.
 There are   210 symmetry adapted basis functions of A   symmetry.
   210 basis functions,   364 primitive gaussians,   210 cartesian basis functions
    36 alpha electrons       36 beta electrons
       nuclear repulsion energy       410.1738129993 Hartrees.
 NAtoms=   22 NActive=   22 NUniq=   22 SFac= 1.00D+00 NAtFMM=   60 NAOKFM=F Big=F
 Integral buffers will be    131072 words long.
 Raffenetti 2 integral format.
 Two-electron integral symmetry is turned on.
 One-electron integrals computed using PRISM.
 NBasis=   210 RedAO= T EigKep=  1.55D-03  NBF=   210
 NBsUse=   210 1.00D-06 EigRej= -1.00D+00 NBFU=   210
 Initial guess from the checkpoint file:  "/home/joao/Curso_de_Fisica/nono_semestre/5/Gau-29518.chk"
 B after Tr=    -0.000000    0.000000   -0.000000
         Rot=    1.000000    0.000000   -0.000000   -0.000866 Ang=  -0.10 deg.
 ExpMin= 1.61D-01 ExpMax= 3.05D+03 ExpMxC= 4.57D+02 IAcc=3 IRadAn=         5 AccDes= 0.00D+00
 Harris functional with IExCor=  402 and IRadAn=       5 diagonalized for initial guess.
 HarFok:  IExCor=  402 AccDes= 0.00D+00 IRadAn=         5 IDoV= 1 UseB2=F ITyADJ=14
 ICtDFT=  3500011 ScaDFX=  1.000000  1.000000  1.000000  1.000000
 FoFCou: FMM=F IPFlag=           0 FMFlag=      100000 FMFlg1=           0
         NFxFlg=           0 DoJE=T BraDBF=F KetDBF=T FulRan=T
         wScrn=  0.000000 ICntrl=       500 IOpCl=  0 I1Cent=   200000004 NGrid=           0
         NMat0=    1 NMatS0=      1 NMatT0=    0 NMatD0=    1 NMtDS0=    0 NMtDT0=    0
 Petite list used in FoFCou.
 Requested convergence on RMS density matrix=1.00D-08 within 128 cycles.
 Requested convergence on MAX density matrix=1.00D-06.
 Requested convergence on             energy=1.00D-06.
 No special actions if energy rises.
 Integral accuracy reduced to 1.0D-05 until final iterations.
 Initial convergence to 1.0D-05 achieved.  Increase integral accuracy.
 SCF Done:  E(RB3LYP) =  -388.231674881     A.U. after   11 cycles
            NFock= 11  Conv=0.84D-08     -V/T= 2.0103
 Calling FoFJK, ICntrl=      2127 FMM=F ISym2X=0 I1Cent= 0 IOpClX= 0 NMat=1 NMatS=1 NMatT=0.
 ***** Axes restored to original set *****
 -------------------------------------------------------------------
 Center     Atomic                   Forces (Hartrees/Bohr)
 Number     Number              X              Y              Z
 -------------------------------------------------------------------
      1        6           0.001833142    0.003021562    0.000000558
      2        6           0.003146413   -0.006378585   -0.000001763
      3        6          -0.005307251    0.007038260    0.000002108
      4        6           0.007704917   -0.007614629   -0.000002442
      5        6          -0.008338908    0.007210340    0.000002410
      6        6           0.008340600   -0.007206764   -0.000002398
      7        6          -0.007703623    0.007615540    0.000002443
      8        6           0.005308856   -0.007035293   -0.000002089
      9        6          -0.003146164    0.006377412    0.000001752
     10        6          -0.001830373   -0.003022693   -0.000000535
     11        1           0.000131312   -0.000889138   -0.000000219
     12        1          -0.000634405   -0.000568015   -0.000000080
     13        1           0.000321711    0.001276546    0.000000269
     14        1           0.000592768   -0.001597873   -0.000000428
     15        1          -0.000662680    0.001602336    0.000000426
     16        1           0.000691986   -0.001562145   -0.000000433
     17        1          -0.000694139    0.001560935    0.000000417
     18        1           0.000660725   -0.001603255   -0.000000438
     19        1          -0.000594081    0.001596943    0.000000419
     20        1          -0.000322599   -0.001277163   -0.000000270
     21        1           0.000634217    0.000568170    0.000000076
     22        1          -0.000132424    0.000887510    0.000000217
 -------------------------------------------------------------------
 Cartesian Forces:  Max     0.008340600 RMS     0.003445302

 GradGradGradGradGradGradGradGradGradGradGradGradGradGradGradGradGradGrad
 Berny optimization.
 Using GEDIIS/GDIIS optimizer.
 FormGI is forming the generalized inverse of G from B-inverse, IUseBI=4.
 Internal  Forces:  Max     0.008206074 RMS     0.001707942
 Search for a local minimum.
 Step number   2 out of a maximum of   97
 All quantities printed in internal units (Hartrees-Bohrs-Radians)
 Mixed Optimization -- RFO/linear search
 Update second derivatives using D2CorX and points    1    2
 DE= -8.10D-03 DEPred=-7.67D-03 R= 1.06D+00
 TightC=F SS=  1.41D+00  RLast= 2.34D-01 DXNew= 5.0454D-01 7.0252D-01
 Trust test= 1.06D+00 RLast= 2.34D-01 DXMaxT set to 5.05D-01
 ITU=  1  0
 Use linear search instead of GDIIS.
     Eigenvalues ---    0.01060   0.01060   0.01067   0.01067   0.01997
     Eigenvalues ---    0.01997   0.01997   0.01997   0.02002   0.02002
     Eigenvalues ---    0.02031   0.02031   0.02888   0.02889   0.02889
     Eigenvalues ---    0.02949   0.02949   0.02949   0.02949   0.15715
     Eigenvalues ---    0.16000   0.16000   0.16000   0.16000   0.16000
     Eigenvalues ---    0.16000   0.16000   0.16000   0.16000   0.16000
     Eigenvalues ---    0.16613   0.20929   0.22000   0.22000   0.22000
     Eigenvalues ---    0.22000   0.22000   0.22000   0.22042   0.31565
     Eigenvalues ---    0.34825   0.34866   0.34885   0.35079   0.35080
     Eigenvalues ---    0.35080   0.35081   0.35082   0.35172   0.35192
     Eigenvalues ---    0.35254   0.35273   0.35333   0.35371   0.35428
     Eigenvalues ---    0.57293   0.57313   0.57824   0.58346   0.60928
 RFO step:  Lambda=-7.16014788D-04 EMin= 1.05983850D-02
 Quartic linear search produced a step of  0.13296.
 Iteration  1 RMS(Cart)=  0.01173919 RMS(Int)=  0.00002410
 Iteration  2 RMS(Cart)=  0.00005981 RMS(Int)=  0.00000000
 Iteration  3 RMS(Cart)=  0.00000000 RMS(Int)=  0.00000000
 Variable       Old X    -DE/DX   Delta X   Delta X   Delta X     New X
                                 (Linear)    (Quad)   (Total)
    R1        2.54237  -0.00193   0.00261  -0.00543  -0.00282   2.53955
    R2        2.05123  -0.00054   0.00006  -0.00177  -0.00171   2.04952
    R3        2.05186   0.00058  -0.00006   0.00191   0.00185   2.05370
    R4        2.75302  -0.00587  -0.00513  -0.01563  -0.02077   2.73226
    R5        2.05537   0.00127   0.00023   0.00394   0.00417   2.05954
    R6        2.56251  -0.00102   0.00415  -0.00469  -0.00055   2.56197
    R7        2.05481   0.00160  -0.00009   0.00522   0.00514   2.05995
    R8        2.74454  -0.00821  -0.00639  -0.02244  -0.02883   2.71571
    R9        2.05511   0.00161  -0.00005   0.00522   0.00517   2.06029
   R10        2.56512  -0.00032   0.00448  -0.00352   0.00096   2.56608
   R11        2.05499   0.00157  -0.00006   0.00510   0.00504   2.06004
   R12        2.74453  -0.00820  -0.00639  -0.02243  -0.02882   2.71571
   R13        2.05500   0.00157  -0.00006   0.00510   0.00504   2.06004
   R14        2.56252  -0.00102   0.00415  -0.00469  -0.00055   2.56197
   R15        2.05511   0.00161  -0.00005   0.00522   0.00518   2.06028
   R16        2.75301  -0.00586  -0.00513  -0.01562  -0.02075   2.73226
   R17        2.05482   0.00160  -0.00009   0.00522   0.00514   2.05995
   R18        2.54237  -0.00193   0.00261  -0.00543  -0.00282   2.53955
   R19        2.05537   0.00127   0.00023   0.00394   0.00417   2.05954
   R20        2.05186   0.00058  -0.00007   0.00191   0.00185   2.05370
   R21        2.05123  -0.00054   0.00006  -0.00177  -0.00171   2.04952
    A1        2.11929   0.00056   0.00338   0.00156   0.00494   2.12423
    A2        2.11654   0.00036   0.00018   0.00241   0.00258   2.11913
    A3        2.04735  -0.00091  -0.00356  -0.00397  -0.00752   2.03983
    A4        2.16432   0.00127   0.00662   0.00204   0.00866   2.17297
    A5        2.08236  -0.00029   0.00088  -0.00152  -0.00064   2.08172
    A6        2.03651  -0.00098  -0.00750  -0.00052  -0.00802   2.02849
    A7        2.16232   0.00086   0.00685  -0.00025   0.00659   2.16891
    A8        2.03517   0.00017  -0.00611   0.00619   0.00008   2.03526
    A9        2.08569  -0.00102  -0.00074  -0.00594  -0.00667   2.07902
   A10        2.16472   0.00105   0.00708   0.00059   0.00767   2.17239
   A11        2.08250  -0.00119  -0.00103  -0.00671  -0.00773   2.07477
   A12        2.03596   0.00014  -0.00605   0.00612   0.00007   2.03603
   A13        2.16382   0.00091   0.00700  -0.00009   0.00692   2.17074
   A14        2.03625   0.00024  -0.00602   0.00667   0.00065   2.03690
   A15        2.08312  -0.00115  -0.00099  -0.00658  -0.00757   2.07555
   A16        2.16395   0.00089   0.00697  -0.00015   0.00682   2.17077
   A17        2.08307  -0.00114  -0.00097  -0.00656  -0.00754   2.07553
   A18        2.03616   0.00025  -0.00600   0.00672   0.00072   2.03688
   A19        2.16460   0.00107   0.00710   0.00065   0.00775   2.17236
   A20        2.03605   0.00013  -0.00606   0.00607   0.00001   2.03605
   A21        2.08253  -0.00119  -0.00104  -0.00672  -0.00776   2.07477
   A22        2.16240   0.00084   0.00683  -0.00030   0.00653   2.16894
   A23        2.08566  -0.00102  -0.00073  -0.00592  -0.00665   2.07901
   A24        2.03513   0.00017  -0.00610   0.00622   0.00012   2.03524
   A25        2.16426   0.00128   0.00663   0.00207   0.00870   2.17296
   A26        2.03655  -0.00098  -0.00750  -0.00055  -0.00805   2.02851
   A27        2.08237  -0.00029   0.00087  -0.00152  -0.00065   2.08172
   A28        2.11653   0.00036   0.00018   0.00241   0.00259   2.11912
   A29        2.11932   0.00055   0.00338   0.00155   0.00492   2.12424
   A30        2.04734  -0.00091  -0.00355  -0.00396  -0.00751   2.03982
    D1       -3.14159  -0.00000  -0.00000  -0.00000  -0.00000  -3.14159
    D2       -0.00000   0.00000   0.00000   0.00000   0.00000   0.00000
    D3        0.00000  -0.00000  -0.00000  -0.00000  -0.00000   0.00000
    D4        3.14159   0.00000   0.00000  -0.00000   0.00000  -3.14159
    D5        3.14159   0.00000   0.00000   0.00000   0.00000   3.14159
    D6       -0.00000   0.00000   0.00000   0.00000   0.00000  -0.00000
    D7       -0.00000   0.00000   0.00000   0.00000   0.00000  -0.00000
    D8        3.14159   0.00000  -0.00000   0.00000   0.00000   3.14159
    D9       -3.14159  -0.00000  -0.00000  -0.00000  -0.00000  -3.14159
   D10        0.00000  -0.00000   0.00000  -0.00000   0.00000   0.00000
   D11        0.00000  -0.00000  -0.00000  -0.00000  -0.00000   0.00000
   D12        3.14159   0.00000   0.00000   0.00000   0.00000  -3.14159
   D13        3.14159   0.00000   0.00000   0.00000   0.00000   3.14159
   D14       -0.00000   0.00000   0.00000   0.00000   0.00000  -0.00000
   D15       -0.00000   0.00000   0.00000   0.00000   0.00000  -0.00000
   D16        3.14159   0.00000  -0.00000   0.00000   0.00000   3.14159
   D17       -3.14159  -0.00000  -0.00000  -0.00000  -0.00000  -3.14159
   D18        0.00000  -0.00000   0.00000  -0.00000  -0.00000   0.00000
   D19        0.00000  -0.00000  -0.00000  -0.00000  -0.00000   0.00000
   D20        3.14159   0.00000   0.00000   0.00000   0.00000  -3.14159
   D21        3.14159   0.00000   0.00000   0.00000   0.00000   3.14159
   D22       -0.00000   0.00000   0.00000   0.00000   0.00000  -0.00000
   D23       -0.00000   0.00000   0.00000   0.00000   0.00000  -0.00000
   D24        3.14159   0.00000  -0.00000   0.00000   0.00000   3.14159
   D25       -3.14159  -0.00000  -0.00000  -0.00000  -0.00000  -3.14159
   D26        0.00000  -0.00000  -0.00000  -0.00000  -0.00000   0.00000
   D27        0.00000  -0.00000   0.00000  -0.00000  -0.00000   0.00000
   D28        3.14159   0.00000   0.00000   0.00000   0.00000  -3.14159
   D29        3.14159   0.00000   0.00000   0.00000   0.00000   3.14159
   D30       -0.00000   0.00000   0.00000   0.00000   0.00000  -0.00000
   D31       -0.00000   0.00000   0.00000   0.00000   0.00000  -0.00000
   D32        3.14159   0.00000  -0.00000   0.00000   0.00000   3.14159
   D33        0.00000  -0.00000  -0.00000  -0.00000  -0.00000   0.00000
   D34       -3.14159  -0.00000  -0.00000  -0.00000  -0.00000  -3.14159
   D35        3.14159   0.00000   0.00000   0.00000   0.00000  -3.14159
   D36       -0.00000   0.00000   0.00000   0.00000   0.00000   0.00000
         Item               Value     Threshold  Converged?
 Maximum Force            0.008206     0.000450     NO 
 RMS     Force            0.001708     0.000300     NO 
 Maximum Displacement     0.045173     0.001800     NO 
 RMS     Displacement     0.011780     0.001200     NO 
 Predicted change in Energy=-4.700763D-04
 GradGradGradGradGradGradGradGradGradGradGradGradGradGradGradGradGradGrad

                          Input orientation:                          
 ---------------------------------------------------------------------
 Center     Atomic      Atomic             Coordinates (Angstroms)
 Number     Number       Type             X           Y           Z
 ---------------------------------------------------------------------
      1          6           0       -4.990529    1.240707    0.000572
      2          6           0       -3.820712    1.902163    0.000626
      3          6           0       -2.521331    1.268063    0.000366
      4          6           0       -1.343907    1.940143    0.000422
      5          6           0       -0.050210    1.314378    0.000164
      6          6           0        1.127991    1.989485    0.000220
      7          6           0        2.421710    1.363764   -0.000037
      8          6           0        3.599091    2.035922    0.000018
      9          6           0        4.898528    1.401935   -0.000242
     10          6           0        6.068276    2.063514   -0.000189
     11          1           0       -5.940891    1.763280    0.000776
     12          1           0       -5.027160    0.154551    0.000322
     13          1           0       -3.824735    2.992018    0.000880
     14          1           0       -2.509933    0.178044    0.000111
     15          1           0       -1.359939    3.030282    0.000677
     16          1           0       -0.033227    0.224386   -0.000091
     17          1           0        1.110997    3.079478    0.000476
     18          1           0        2.437808    0.273627   -0.000293
     19          1           0        3.587609    3.125941    0.000273
     20          1           0        4.902666    0.312081   -0.000496
     21          1           0        6.104788    3.149674    0.000061
     22          1           0        7.018697    1.541047   -0.000393
 ---------------------------------------------------------------------
                    Distance matrix (angstroms):
                    1          2          3          4          5
     1  C    0.000000
     2  C    1.343874   0.000000
     3  C    2.469350   1.445848   0.000000
     4  C    3.713094   2.477096   1.355736   0.000000
     5  C    4.940869   3.816042   2.471555   1.437092   0.000000
     6  C    6.164168   4.949474   3.719946   2.472391   1.357912
     7  C    7.413261   6.265597   4.943967   3.809473   2.472413
     8  C    8.626351   7.421008   6.168401   4.943925   3.719949
     9  C    9.890371   8.733577   7.421066   6.265593   4.949512
    10  C   11.089373   9.890304   8.626360   7.413210   6.164176
    11  H    1.084560   2.124723   3.455233   4.600385   5.907761
    12  H    1.086773   2.123597   2.742096   4.093250   5.110307
    13  H    2.103846   1.089862   2.161223   2.694615   4.130559
    14  H    2.698631   2.165809   1.090079   2.112963   2.709520
    15  H    4.047687   2.707039   2.110509   1.090257   2.158638
    16  H    5.060410   4.142460   2.698132   2.159098   1.090124
    17  H    6.372574   5.070289   4.058945   2.706407   2.112813
    18  H    7.491024   6.466932   5.057861   4.132632   2.696923
    19  H    8.782856   7.508719   6.385206   5.072077   4.063925
    20  H    9.936682   8.867112   7.485294   6.455250   5.053273
    21  H   11.258340  10.003591   8.828951   7.546258   6.422795
    22  H   12.012981  10.845422   9.543932   8.372121   7.072539
                    6          7          8          9         10
     6  C    0.000000
     7  C    1.437093   0.000000
     8  C    2.471536   1.355737   0.000000
     9  C    3.816040   2.477112   1.445848   0.000000
    10  C    4.940839   3.713098   2.469340   1.343874   0.000000
    11  H    7.072501   8.372139   9.543877  10.845440  12.012920
    12  H    6.422839   7.546380   8.829029  10.003762  11.258456
    13  H    5.053174   6.455175   7.485139   8.866999   9.936488
    14  H    4.063965   5.072182   6.385286   7.508875   8.782976
    15  H    2.696861   4.132572   5.057740   6.466833   7.490863
    16  H    2.112818   2.706455   4.058989   5.070388   6.372655
    17  H    1.090126   2.159084   2.698077   4.142408   5.060316
    18  H    2.158654   1.090256   2.110512   2.707069   4.047715
    19  H    2.709475   2.112958   1.090080   2.165803   2.698603
    20  H    4.130599   2.694657   2.161234   1.089862   2.103845
    21  H    5.110239   4.093231   2.742072   2.123595   1.086773
    22  H    5.907750   4.600404   3.455229   2.124728   1.084561
                   11         12         13         14         15
    11  H    0.000000
    12  H    1.850112   0.000000
    13  H    2.447021   3.081727   0.000000
    14  H    3.779477   2.517337   3.105987   0.000000
    15  H    4.752938   4.660294   2.465093   3.075346   0.000000
    16  H    6.104809   4.994421   4.694179   2.477139   3.103742
    17  H    7.173668   6.799424   4.936507   4.639985   2.471426
    18  H    8.510092   7.465918   6.827085   4.948664   4.692764
    19  H    9.625444   9.112815   7.413554   6.772748   4.948473
    20  H   10.940233   9.931075   9.129599   7.413810   6.827066
    21  H   12.125200  11.527837   9.930774   9.112848   7.465681
    22  H   12.961493  12.125388  10.940079   9.625620   8.509957
                   16         17         18         19         20
    16  H    0.000000
    17  H    3.075841   0.000000
    18  H    2.471526   3.103744   0.000000
    19  H    4.639986   2.477048   3.075343   0.000000
    20  H    4.936672   4.694170   2.465157   3.105991   0.000000
    21  H    6.799451   4.994284   4.660299   2.517290   3.081725
    22  H    7.173787   6.104727   4.752988   3.779451   2.447028
                   21         22
    21  H    0.000000
    22  H    1.850111   0.000000
 Stoichiometry    C10H12
 Framework group  C1[X(C10H12)]
 Deg. of freedom    60
 Full point group                 C1      NOp   1
 Largest Abelian subgroup         C1      NOp   1
 Largest concise Abelian subgroup C1      NOp   1
                         Standard orientation:                         
 ---------------------------------------------------------------------
 Center     Atomic      Atomic             Coordinates (Angstroms)
 Number     Number       Type             X           Y           Z
 ---------------------------------------------------------------------
      1          6           0       -5.540484    0.216089    0.000000
      2          6           0       -4.348072   -0.403710    0.000000
      3          6           0       -3.071856    0.275811   -0.000000
      4          6           0       -1.871468   -0.354338   -0.000000
      5          6           0       -0.600638    0.316652   -0.000000
      6          6           0        0.600633   -0.316492   -0.000000
      7          6           0        1.871485    0.354455   -0.000000
      8          6           0        3.071834   -0.275772   -0.000000
      9          6           0        4.348109    0.403637    0.000000
     10          6           0        5.540456   -0.216287    0.000000
     11          1           0       -6.471830   -0.339668    0.000001
     12          1           0       -5.615388    1.300277    0.000000
     13          1           0       -4.313665   -1.493029    0.000000
     14          1           0       -3.098898    1.365554   -0.000000
     15          1           0       -1.849053   -1.444364   -0.000000
     16          1           0       -0.622099    1.406565   -0.000000
     17          1           0        0.622081   -1.406407   -0.000000
     18          1           0        1.849137    1.444481   -0.000000
     19          1           0        3.098792   -1.365518   -0.000000
     20          1           0        4.313817    1.492959    0.000000
     21          1           0        5.615242   -1.300484    0.000000
     22          1           0        6.471865    0.339366    0.000001
 ---------------------------------------------------------------------
 Rotational constants (GHZ):          15.6175061           0.2934545           0.2880422
 Standard basis: 6-31G(d,p) (6D, 7F)
 There are   210 symmetry adapted cartesian basis functions of A   symmetry.
 There are   210 symmetry adapted basis functions of A   symmetry.
   210 basis functions,   364 primitive gaussians,   210 cartesian basis functions
    36 alpha electrons       36 beta electrons
       nuclear repulsion energy       411.3100918013 Hartrees.
 NAtoms=   22 NActive=   22 NUniq=   22 SFac= 1.00D+00 NAtFMM=   60 NAOKFM=F Big=F
 Integral buffers will be    131072 words long.
 Raffenetti 2 integral format.
 Two-electron integral symmetry is turned on.
 One-electron integrals computed using PRISM.
 NBasis=   210 RedAO= T EigKep=  1.48D-03  NBF=   210
 NBsUse=   210 1.00D-06 EigRej= -1.00D+00 NBFU=   210
 Initial guess from the checkpoint file:  "/home/joao/Curso_de_Fisica/nono_semestre/5/Gau-29518.chk"
 B after Tr=     0.000000   -0.000000    0.000000
         Rot=    1.000000    0.000000   -0.000000   -0.000160 Ang=  -0.02 deg.
 ExpMin= 1.61D-01 ExpMax= 3.05D+03 ExpMxC= 4.57D+02 IAcc=3 IRadAn=         5 AccDes= 0.00D+00
 Harris functional with IExCor=  402 and IRadAn=       5 diagonalized for initial guess.
 HarFok:  IExCor=  402 AccDes= 0.00D+00 IRadAn=         5 IDoV= 1 UseB2=F ITyADJ=14
 ICtDFT=  3500011 ScaDFX=  1.000000  1.000000  1.000000  1.000000
 FoFCou: FMM=F IPFlag=           0 FMFlag=      100000 FMFlg1=           0
         NFxFlg=           0 DoJE=T BraDBF=F KetDBF=T FulRan=T
         wScrn=  0.000000 ICntrl=       500 IOpCl=  0 I1Cent=   200000004 NGrid=           0
         NMat0=    1 NMatS0=      1 NMatT0=    0 NMatD0=    1 NMtDS0=    0 NMtDT0=    0
 Petite list used in FoFCou.
 Requested convergence on RMS density matrix=1.00D-08 within 128 cycles.
 Requested convergence on MAX density matrix=1.00D-06.
 Requested convergence on             energy=1.00D-06.
 No special actions if energy rises.
 Integral accuracy reduced to 1.0D-05 until final iterations.
 Initial convergence to 1.0D-05 achieved.  Increase integral accuracy.
 SCF Done:  E(RB3LYP) =  -388.232131229     A.U. after   11 cycles
            NFock= 11  Conv=0.49D-08     -V/T= 2.0101
 Calling FoFJK, ICntrl=      2127 FMM=F ISym2X=0 I1Cent= 0 IOpClX= 0 NMat=1 NMatS=1 NMatT=0.
 ***** Axes restored to original set *****
 -------------------------------------------------------------------
 Center     Atomic                   Forces (Hartrees/Bohr)
 Number     Number              X              Y              Z
 -------------------------------------------------------------------
      1        6          -0.000000251    0.000253007    0.000000060
      2        6           0.000066355    0.000287616    0.000000063
      3        6          -0.001022957   -0.000449074   -0.000000014
      4        6           0.000943522    0.000392555    0.000000015
      5        6          -0.001278348   -0.000451594    0.000000009
      6        6           0.001279222    0.000452229   -0.000000000
      7        6          -0.000942351   -0.000391334   -0.000000006
      8        6           0.001022895    0.000448822    0.000000019
      9        6          -0.000065961   -0.000286637   -0.000000059
     10        6           0.000000585   -0.000253389   -0.000000059
     11        1          -0.000096097   -0.000027724    0.000000002
     12        1          -0.000088736   -0.000053779   -0.000000006
     13        1          -0.000393412    0.000124834    0.000000061
[...]
     6  C    0.000000
     7  C    1.437593   0.000000
     8  C    2.473510   1.356729   0.000000
     9  C    3.817968   2.477997   1.446490   0.000000
    10  C    4.944148   3.714721   2.470696   1.343948   0.000000
    11  H    7.075647   8.376481   9.549019  10.850698  12.019368
    12  H    6.429507   7.554546   8.838096  10.012725  11.268306
    13  H    5.057103   6.459741   7.490955   8.872888   9.944162
    14  H    4.064293   5.073054   6.387371   7.510183   8.785292
    15  H    2.702353   4.138527   5.065647   6.474801   7.500975
    16  H    2.111322   2.704021   4.057657   5.067882   6.370936
    17  H    1.090372   2.162434   2.704539   4.149377   5.069577
    18  H    2.161661   1.090564   2.108837   2.703063   4.043962
    19  H    2.708540   2.111889   1.090281   2.169341   2.704854
    20  H    4.133762   2.697272   2.163409   1.090059   2.102058
    21  H    5.116104   4.096735   2.744762   2.124314   1.086887
    22  H    5.910510   4.601605   3.456535   2.124957   1.084669
                   11         12         13         14         15
    11  H    0.000000
    12  H    1.849692   0.000000
    13  H    2.444233   3.081013   0.000000
    14  H    3.785711   2.525596   3.109806   0.000000
    15  H    4.748249   4.658825   2.462522   3.073201   0.000000
    16  H    6.113615   5.006427   4.701627   2.480914   3.108129
    17  H    7.170900   6.800589   4.935194   4.636694   2.472692
    18  H    8.519462   7.479083   6.835671   4.953612   4.701447
    19  H    9.626757   9.118207   7.416099   6.772143   4.953597
    20  H   10.947132   9.941610   9.136587   7.416120   6.835669
    21  H   12.134375  11.540311   9.941585   9.118209   7.479063
    22  H   12.967284  12.134391  10.947120   9.626771   8.519451
                   16         17         18         19         20
    16  H    0.000000
    17  H    3.073398   0.000000
    18  H    2.472700   3.108129   0.000000
    19  H    4.636694   2.480906   3.073201   0.000000
    20  H    4.935208   4.701626   2.462527   3.109806   0.000000
    21  H    6.800591   5.006415   4.658825   2.525591   3.081013
    22  H    7.170910   6.113608   4.748253   3.785708   2.444234
                   21         22
    21  H    0.000000
    22  H    1.849692   0.000000
 Stoichiometry    C10H12
 Framework group  C1[X(C10H12)]
 Deg. of freedom    60
 Full point group                 C1      NOp   1
 Largest Abelian subgroup         C1      NOp   1
 Largest concise Abelian subgroup C1      NOp   1
                         Standard orientation:                         
 ---------------------------------------------------------------------
 Center     Atomic      Atomic             Coordinates (Angstroms)
 Number     Number       Type             X           Y           Z
 ---------------------------------------------------------------------
      1          6           0       -5.544112    0.214710   -0.000000
      2          6           0       -4.350471   -0.402880    0.000000
      3          6           0       -3.074225    0.277950    0.000000
      4          6           0       -1.872983   -0.352709    0.000000
      5          6           0       -0.601025    0.317213    0.000000
      6          6           0        0.601024   -0.317200    0.000000
      7          6           0        1.872985    0.352719    0.000000
      8          6           0        3.074223   -0.277947    0.000000
      9          6           0        4.350474    0.402874    0.000000
     10          6           0        5.544110   -0.214726   -0.000000
     11          1           0       -6.474576   -0.342734   -0.000000
     12          1           0       -5.622088    1.298796   -0.000000
     13          1           0       -4.317624   -1.492443    0.000000
     14          1           0       -3.097439    1.367984    0.000000
     15          1           0       -1.855596   -1.443135    0.000000
     16          1           0       -0.616840    1.407470    0.000000
     17          1           0        0.616839   -1.407457    0.000000
     18          1           0        1.855602    1.443145    0.000000
     19          1           0        3.097431   -1.367980    0.000000
     20          1           0        4.317636    1.492438    0.000000
     21          1           0        5.622075   -1.298813   -0.000000
     22          1           0        6.474579    0.342709   -0.000000
 ---------------------------------------------------------------------
 Rotational constants (GHZ):          15.6253854           0.2930676           0.2876721

 **********************************************************************

            Population analysis using the SCF Density.

 **********************************************************************

 Orbital symmetries:
       Occupied  (A) (A) (A) (A) (A) (A) (A) (A) (A) (A) (A) (A)
                 (A) (A) (A) (A) (A) (A) (A) (A) (A) (A) (A) (A)
                 (A) (A) (A) (A) (A) (A) (A) (A) (A) (A) (A) (A)
       Virtual   (A) (A) (A) (A) (A) (A) (A) (A) (A) (A) (A) (A)
                 (A) (A) (A) (A) (A) (A) (A) (A) (A) (A) (A) (A)
                 (A) (A) (A) (A) (A) (A) (A) (A) (A) (A) (A) (A)
                 (A) (A) (A) (A) (A) (A) (A) (A) (A) (A) (A) (A)
                 (A) (A) (A) (A) (A) (A) (A) (A) (A) (A) (A) (A)
                 (A) (A) (A) (A) (A) (A) (A) (A) (A) (A) (A) (A)
                 (A) (A) (A) (A) (A) (A) (A) (A) (A) (A) (A) (A)
                 (A) (A) (A) (A) (A) (A) (A) (A) (A) (A) (A) (A)
                 (A) (A) (A) (A) (A) (A) (A) (A) (A) (A) (A) (A)
                 (A) (A) (A) (A) (A) (A) (A) (A) (A) (A) (A) (A)
                 (A) (A) (A) (A) (A) (A) (A) (A) (A) (A) (A) (A)
                 (A) (A) (A) (A) (A) (A) (A) (A) (A) (A) (A) (A)
                 (A) (A) (A) (A) (A) (A) (A) (A) (A) (A) (A) (A)
                 (A) (A) (A) (A) (A) (A) (A) (A) (A) (A) (A) (A)
                 (A) (A) (A) (A) (A) (A)
 The electronic state is 1-A.
 Alpha  occ. eigenvalues --  -10.19452 -10.19411 -10.19394 -10.19365 -10.19355
 Alpha  occ. eigenvalues --  -10.19354 -10.19276 -10.19276 -10.18410 -10.18410
 Alpha  occ. eigenvalues --   -0.82727  -0.80950  -0.78225  -0.74645  -0.70493
 Alpha  occ. eigenvalues --   -0.63569  -0.58444  -0.56405  -0.55090  -0.54668
 Alpha  occ. eigenvalues --   -0.48432  -0.47610  -0.44609  -0.44572  -0.40781
 Alpha  occ. eigenvalues --   -0.40445  -0.37795  -0.37721  -0.36059  -0.35006
 Alpha  occ. eigenvalues --   -0.35003  -0.34469  -0.32754  -0.29228  -0.24515
 Alpha  occ. eigenvalues --   -0.18930
 Alpha virt. eigenvalues --   -0.06738  -0.00310   0.05431   0.09006   0.09271
 Alpha virt. eigenvalues --    0.10741   0.11250   0.12601   0.12713   0.14134
 Alpha virt. eigenvalues --    0.15161   0.15278   0.16318   0.18240   0.19272
 Alpha virt. eigenvalues --    0.19987   0.20644   0.27618   0.31208   0.33053
 Alpha virt. eigenvalues --    0.35088   0.37198   0.38139   0.38560   0.40288
 Alpha virt. eigenvalues --    0.41738   0.47577   0.47702   0.51787   0.53166
 Alpha virt. eigenvalues --    0.55428   0.57342   0.57484   0.58159   0.58743
 Alpha virt. eigenvalues --    0.59438   0.59680   0.61073   0.62204   0.62384
 Alpha virt. eigenvalues --    0.63577   0.65934   0.65982   0.67920   0.67989
 Alpha virt. eigenvalues --    0.68539   0.73523   0.73583   0.79376   0.81167
 Alpha virt. eigenvalues --    0.83127   0.83655   0.84363   0.85232   0.85777
 Alpha virt. eigenvalues --    0.87167   0.88108   0.88318   0.91712   0.91926
 Alpha virt. eigenvalues --    0.93251   0.94844   0.97828   1.03089   1.03499
 Alpha virt. eigenvalues --    1.04903   1.06209   1.07376   1.10486   1.11556
 Alpha virt. eigenvalues --    1.19984   1.20511   1.28773   1.29765   1.29836
 Alpha virt. eigenvalues --    1.31676   1.31797   1.32644   1.33960   1.35216
 Alpha virt. eigenvalues --    1.35835   1.38170   1.41143   1.44600   1.48111
 Alpha virt. eigenvalues --    1.48151   1.51206   1.51212   1.53009   1.78574
 Alpha virt. eigenvalues --    1.78795   1.79598   1.80940   1.83102   1.85405
 Alpha virt. eigenvalues --    1.85731   1.90108   1.90352   1.92288   1.92474
 Alpha virt. eigenvalues --    1.95095   1.96379   1.98043   1.99254   2.04932
 Alpha virt. eigenvalues --    2.07003   2.07610   2.10307   2.12624   2.12980
 Alpha virt. eigenvalues --    2.15843   2.19281   2.20178   2.20720   2.21362
 Alpha virt. eigenvalues --    2.25574   2.29333   2.31247   2.37288   2.40711
 Alpha virt. eigenvalues --    2.41533   2.43156   2.46174   2.47535   2.49001
 Alpha virt. eigenvalues --    2.51316   2.52091   2.52335   2.53122   2.54138
 Alpha virt. eigenvalues --    2.56287   2.59907   2.61518   2.65242   2.65468
 Alpha virt. eigenvalues --    2.65764   2.67769   2.68601   2.70187   2.70968
 Alpha virt. eigenvalues --    2.74183   2.75438   2.80174   2.80384   2.87842
 Alpha virt. eigenvalues --    2.90061   2.91862   2.92899   2.96765   2.99075
 Alpha virt. eigenvalues --    3.01875   3.04128   3.26037   3.26312   3.35978
 Alpha virt. eigenvalues --    3.37708   3.40727   3.45527   3.49473   3.53347
 Alpha virt. eigenvalues --    3.61167   3.65770   3.71052   3.71996   4.12806
 Alpha virt. eigenvalues --    4.13587   4.15075   4.18036   4.23706   4.29520
 Alpha virt. eigenvalues --    4.40216   4.52735   4.65017   4.74194
          Condensed to atoms (all electrons):
               1          2          3          4          5          6
     1  C    4.974036   0.615524  -0.030784   0.003107  -0.000248   0.000003
     2  C    0.615524   4.721557   0.438292  -0.017491   0.003728  -0.000232
     3  C   -0.030784   0.438292   4.861333   0.566659  -0.016223   0.002823
     4  C    0.003107  -0.017491   0.566659   4.863789   0.412846  -0.014467
     5  C   -0.000248   0.003728  -0.016223   0.412846   4.879599   0.552676
     6  C    0.000003  -0.000232   0.002823  -0.014467   0.552676   4.879598
     7  C   -0.000000   0.000002  -0.000231   0.003410  -0.014467   0.412846
     8  C   -0.000000  -0.000000   0.000003  -0.000231   0.002823  -0.016223
     9  C    0.000000  -0.000000  -0.000000   0.000002  -0.000232   0.003728
    10  C    0.000000   0.000000  -0.000000  -0.000000   0.000003  -0.000248
    11  H    0.371462  -0.018096   0.003703  -0.000192   0.000002  -0.000000
    12  H    0.380197  -0.034607  -0.011610   0.000334   0.000004  -0.000000
    13  H   -0.051030   0.379831  -0.052047  -0.007848   0.000300  -0.000001
    14  H   -0.006639  -0.050540   0.376294  -0.052361  -0.008890   0.000387
    15  H    0.000355  -0.008569  -0.054603   0.378310  -0.052058  -0.007174
    16  H    0.000000   0.000243  -0.007066  -0.051944   0.378202  -0.053760
    17  H    0.000000  -0.000001   0.000384  -0.008568  -0.053760   0.378202
    18  H    0.000000  -0.000000  -0.000001   0.000275  -0.007174  -0.052058
    19  H    0.000000   0.000000  -0.000000  -0.000000   0.000387  -0.008890
    20  H   -0.000000   0.000000   0.000000  -0.000000  -0.000001   0.000300
    21  H    0.000000  -0.000000   0.000000   0.000000  -0.000000   0.000004
    22  H   -0.000000   0.000000  -0.000000   0.000000  -0.000000   0.000002
               7          8          9         10         11         12
     1  C   -0.000000  -0.000000   0.000000   0.000000   0.371462   0.380197
     2  C    0.000002  -0.000000  -0.000000   0.000000  -0.018096  -0.034607
     3  C   -0.000231   0.000003  -0.000000  -0.000000   0.003703  -0.011610
     4  C    0.003410  -0.000231   0.000002  -0.000000  -0.000192   0.000334
     5  C   -0.014467   0.002823  -0.000232   0.000003   0.000002   0.000004
     6  C    0.412846  -0.016223   0.003728  -0.000248  -0.000000  -0.000000
     7  C    4.863789   0.566659  -0.017491   0.003107   0.000000   0.000000
     8  C    0.566659   4.861333   0.438292  -0.030783  -0.000000   0.000000
     9  C   -0.017491   0.438292   4.721558   0.615524   0.000000  -0.000000
    10  C    0.003107  -0.030783   0.615524   4.974036  -0.000000   0.000000
    11  H    0.000000  -0.000000   0.000000  -0.000000   0.593167  -0.043842
    12  H    0.000000   0.000000  -0.000000   0.000000  -0.043842   0.601114
    13  H   -0.000000   0.000000   0.000000  -0.000000  -0.007744   0.005923
    14  H   -0.000000  -0.000000   0.000000   0.000000   0.000001   0.005225
    15  H    0.000275  -0.000001  -0.000000   0.000000  -0.000006   0.000012
    16  H   -0.008568   0.000384  -0.000001   0.000000   0.000000   0.000001
    17  H   -0.051944  -0.007066   0.000243   0.000000  -0.000000  -0.000000
    18  H    0.378310  -0.054603  -0.008569   0.000355   0.000000  -0.000000
    19  H   -0.052361   0.376294  -0.050540  -0.006639  -0.000000   0.000000
    20  H   -0.007848  -0.052047   0.379831  -0.051030   0.000000   0.000000
    21  H    0.000334  -0.011610  -0.034607   0.380197  -0.000000  -0.000000
    22  H   -0.000192   0.003703  -0.018096   0.371462   0.000000  -0.000000
              13         14         15         16         17         18
     1  C   -0.051030  -0.006639   0.000355   0.000000   0.000000   0.000000
     2  C    0.379831  -0.050540  -0.008569   0.000243  -0.000001  -0.000000
     3  C   -0.052047   0.376294  -0.054603  -0.007066   0.000384  -0.000001
     4  C   -0.007848  -0.052361   0.378310  -0.051944  -0.008568   0.000275
     5  C    0.000300  -0.008890  -0.052058   0.378202  -0.053760  -0.007174
     6  C   -0.000001   0.000387  -0.007174  -0.053760   0.378202  -0.052058
     7  C   -0.000000  -0.000000   0.000275  -0.008568  -0.051944   0.378310
     8  C    0.000000  -0.000000  -0.000001   0.000384  -0.007066  -0.054603
     9  C    0.000000   0.000000  -0.000000  -0.000001   0.000243  -0.008569
    10  C   -0.000000   0.000000   0.000000   0.000000   0.000000   0.000355
    11  H   -0.007744   0.000001  -0.000006   0.000000  -0.000000   0.000000
    12  H    0.005923   0.005225   0.000012   0.000001  -0.000000  -0.000000
    13  H    0.640432   0.005584   0.005140   0.000008   0.000001  -0.000000
    14  H    0.005584   0.641480   0.006232   0.004802   0.000012   0.000001
    15  H    0.005140   0.006232   0.643223   0.005509   0.004852   0.000008
    16  H    0.000008   0.004802   0.005509   0.642575   0.006197   0.004852
    17  H    0.000001   0.000012   0.004852   0.006197   0.642576   0.005509
    18  H   -0.000000   0.000001   0.000008   0.004852   0.005509   0.643222
    19  H   -0.000000  -0.000000   0.000001   0.000012   0.004802   0.006232
    20  H    0.000000  -0.000000  -0.000000   0.000001   0.000008   0.005140
    21  H    0.000000   0.000000  -0.000000  -0.000000   0.000001   0.000012
    22  H    0.000000  -0.000000   0.000000  -0.000000   0.000000  -0.000006
              19         20         21         22
     1  C    0.000000  -0.000000   0.000000  -0.000000
     2  C    0.000000   0.000000  -0.000000   0.000000
     3  C   -0.000000   0.000000   0.000000  -0.000000
     4  C   -0.000000  -0.000000   0.000000   0.000000
     5  C    0.000387  -0.000001  -0.000000  -0.000000
     6  C   -0.008890   0.000300   0.000004   0.000002
     7  C   -0.052361  -0.007848   0.000334  -0.000192
     8  C    0.376294  -0.052047  -0.011610   0.003703
     9  C   -0.050540   0.379831  -0.034607  -0.018096
    10  C   -0.006639  -0.051030   0.380197   0.371462
    11  H   -0.000000   0.000000  -0.000000   0.000000
    12  H    0.000000   0.000000  -0.000000  -0.000000
    13  H   -0.000000   0.000000   0.000000   0.000000
    14  H   -0.000000  -0.000000   0.000000  -0.000000
    15  H    0.000001  -0.000000  -0.000000   0.000000
    16  H    0.000012   0.000001  -0.000000  -0.000000
    17  H    0.004802   0.000008   0.000001   0.000000
    18  H    0.006232   0.005140   0.000012  -0.000006
    19  H    0.641480   0.005584   0.005225   0.000001
    20  H    0.005584   0.640432   0.005923  -0.007744
    21  H    0.005225   0.005923   0.601114  -0.043842
    22  H    0.000001  -0.007744  -0.043842   0.593167
 Mulliken charges:
               1
     1  C   -0.255985
     2  C   -0.029642
     3  C   -0.076926
     4  C   -0.075630
     5  C   -0.077516
     6  C   -0.077517
     7  C   -0.075630
     8  C   -0.076926
     9  C   -0.029642
    10  C   -0.255985
    11  H    0.101544
    12  H    0.097247
    13  H    0.081452
    14  H    0.078411
    15  H    0.078493
    16  H    0.078553
    17  H    0.078553
    18  H    0.078493
    19  H    0.078411
    20  H    0.081452
    21  H    0.097247
    22  H    0.101544
 Sum of Mulliken charges =  -0.00000
 Mulliken charges with hydrogens summed into heavy atoms:
               1
     1  C   -0.057195
     2  C    0.051810
     3  C    0.001485
     4  C    0.002863
     5  C    0.001036
     6  C    0.001036
     7  C    0.002864
     8  C    0.001485
     9  C    0.051810
    10  C   -0.057194
 Electronic spatial extent (au):  <R**2>=           3677.5867
 Charge=             -0.0000 electrons
 Dipole moment (field-independent basis, Debye):
    X=              0.0000    Y=              0.0000    Z=             -0.0000  Tot=              0.0000
 Quadrupole moment (field-independent basis, Debye-Ang):
   XX=            -55.9175   YY=            -54.2935   ZZ=            -66.4735
   XY=              0.1278   XZ=             -0.0000   YZ=             -0.0000
 Traceless Quadrupole moment (field-independent basis, Debye-Ang):
   XX=              2.9773   YY=              4.6013   ZZ=             -7.5786
   XY=              0.1278   XZ=             -0.0000   YZ=             -0.0000
 Octapole moment (field-independent basis, Debye-Ang**2):
  XXX=              0.0003  YYY=              0.0000  ZZZ=             -0.0000  XYY=              0.0000
  XXY=              0.0000  XXZ=             -0.0000  XZZ=              0.0000  YZZ=              0.0000
  YYZ=             -0.0000  XYZ=              0.0000
 Hexadecapole moment (field-independent basis, Debye-Ang**3):
 XXXX=          -4510.9300 YYYY=           -165.6927 ZZZZ=            -68.8980 XXXY=             19.1819
 XXXZ=             -0.0000 YYYX=             -2.5051 YYYZ=             -0.0000 ZZZX=             -0.0000
 ZZZY=             -0.0000 XXYY=           -771.7277 XXZZ=           -919.0754 YYZZ=            -43.5990
 XXYZ=             -0.0000 YYXZ=              0.0000 ZZXY=              0.1282
 N-N= 4.110975419175D+02 E-N=-1.719781757528D+03  KE= 3.843505282309D+02
 1\1\GINC-JOAOLAB\FOpt\RB3LYP\6-31G(d,p)\C10H12\JOAO\03-Oct-2023\0\\#n 
 B3LYP/6-31G(d,p) OPT\\5\\0,1\C,-4.9942168655,1.2421330047,0.0005730704
 \C,-3.8230731375,1.9013895503,0.0006259082\C,-2.5236346124,1.265942916
 5,0.0003657908\C,-1.3453559626,1.9385288764,0.0004211351\C,-0.05058623
 47,1.3138318277,0.000163925\C,1.128367029,1.9901971134,0.0002201117\C,
 2.4231383636,1.3655035625,-0.0000370957\C,3.6014136128,2.0380957902,0.
 0000182845\C,4.9008565619,1.4026585813,-0.0002418311\C,6.0719945858,2.
 0619255555,-0.0001889328\H,-5.9437411863,1.7664521917,0.0007771325\H,-
 5.0339527076,0.1559728782,0.0003232007\H,-3.8286298894,2.991434131,0.0
 008805933\H,-2.5084342796,0.1757680536,0.0001102446\H,-1.3663930894,3.
 0288902558,0.0006772311\H,-0.0279837064,0.223694292,-0.0000922544\H,1.
 105763653,3.0803347168,0.000476304\H,2.444180743,0.2751423828,-0.00029
 3194\H,3.5862066589,3.1282706059,0.0002738312\H,4.9064228526,0.3126141
 293,-0.000496517\H,6.1117203122,3.1480860496,0.0000609435\H,7.02152379
 86,1.537615235,-0.0003929818\\Version=EM64L-G16RevB.01\State=1-A\HF=-3
 88.2321536\RMSD=7.116e-09\RMSF=2.874e-05\Dipole=0.0000048,-0.0000004,0
 .\Quadrupole=2.2217464,3.4127658,-5.6345122,-0.137281,-0.0007086,0.002
 1217\PG=C01 [X(C10H12)]\\@


 THERE IS MUCH PLEASURE TO BE GAINED FROM USELESS KNOWLEDGE

                                       -- BERTRAND RUSSELL
 Job cpu time:       0 days  0 hours  6 minutes 27.3 seconds.
 Elapsed time:       0 days  0 hours  6 minutes 27.1 seconds.
 File lengths (MBytes):  RWF=     31 Int=      0 D2E=      0 Chk=      5 Scr=      1
 Normal termination of Gaussian 16 at Tue Oct  3 11:52:57 2023.
